ITEM: TIMESTEP
0
ITEM: NUMBER OF ATOMS
64
ITEM: BOX BOUNDS xy xz yz pp pp pp
0.0000000000000000e+00 1.0968599653300000e+01 0.0000000000000000e+00
0.0000000000000000e+00 1.0968599653300000e+01 0.0000000000000000e+00
0.0000000000000000e+00 1.0968599653300000e+01 0.0000000000000000e+00
ITEM: ATOMS id type x y z ix iy iz c_ppa fx fy fz
1 1 0 0 0 0 0 0 0 0 0 0
2 1 2.74215 2.74215 0 0 0 0 0 0 0 0
3 1 2.74215 0 2.74215 0 0 0 0 0 0 0
4 1 0 2.74215 2.74215 0 0 0 0 0 0 0
5 1 1.37107 1.37107 1.37107 0 0 0 0 0 0 0
6 1 4.11323 4.11323 1.37107 0 0 0 0 0 0 0
7 1 4.11323 1.37107 4.11323 0 0 0 0 0 0 0
8 1 1.37107 4.11323 4.11323 0 0 0 0 0 0 0
9 1 0 0 5.4843 0 0 0 0 0 0 0
10 1 2.74215 2.74215 5.4843 0 0 0 0 0 0 0
11 1 2.74215 0 8.22645 0 0 0 0 0 0 0
12 1 0 2.74215 8.22645 0 0 0 0 0 0 0
13 1 1.37107 1.37107 6.85537 0 0 0 0 0 0 0
14 1 4.11323 4.11323 6.85537 0 0 0 0 0 0 0
15 1 4.11323 1.37107 9.59752 0 0 0 0 0 0 0
16 1 1.37107 4.11323 9.59752 0 0 0 0 0 0 0
17 1 0 5.4843 0 0 0 0 0 0 0 0
18 1 2.74215 8.22645 0 0 0 0 0 0 0 0
19 1 2.74215 5.4843 2.74215 0 0 0 0 0 0 0
20 1 0 8.22645 2.74215 0 0 0 0 0 0 0
21 1 1.37107 6.85537 1.37107 0 0 0 0 0 0 0
22 1 4.11323 9.59752 1.37107 0 0 0 0 0 0 0
23 1 4.11323 6.85537 4.11323 0 0 0 0 0 0 0
24 1 1.37107 9.59752 4.11323 0 0 0 0 0 0 0
25 1 0 5.4843 5.4843 0 0 0 0 0 0 0
26 1 2.74215 8.22645 5.4843 0 0 0 0 0 0 0
27 1 2.74215 5.4843 8.22645 0 0 0 0 0 0 0
28 1 0 8.22645 8.22645 0 0 0 0 0 0 0
29 1 1.37107 6.85537 6.85537 0 0 0 0 0 0 0
30 1 4.11323 9.59752 6.85537 0 0 0 0 0 0 0
31 1 4.11323 6.85537 9.59752 0 0 0 0 0 0 0
32 1 1.37107 9.59752 9.59752 0 0 0 0 0 0 0
33 1 5.4843 0 0 0 0 0 0 0 0 0
34 1 8.22645 2.74215 0 0 0 0 0 0 0 0
35 1 8.22645 0 2.74215 0 0 0 0 0 0 0
36 1 5.4843 2.74215 2.74215 0 0 0 0 0 0 0
37 1 6.85537 1.37107 1.37107 0 0 0 0 0 0 0
38 1 9.59752 4.11323 1.37107 0 0 0 0 0 0 0
39 1 9.59752 1.37107 4.11323 0 0 0 0 0 0 0
40 1 6.85537 4.11323 4.11323 0 0 0 0 0 0 0
41 1 5.4843 0 5.4843 0 0 0 0 0 0 0
42 1 8.22645 2.74215 5.4843 0 0 0 0 0 0 0
43 1 8.22645 0 8.22645 0 0 0 0 0 0 0
44 1 5.4843 2.74215 8.22645 0 0 0 0 0 0 0
45 1 6.85537 1.37107 6.85537 0 0 0 0 0 0 0
46 1 9.59752 4.11323 6.85537 0 0 0 0 0 0 0
47 1 9.59752 1.37107 9.59752 0 0 0 0 0 0 0
48 1 6.85537 4.11323 9.59752 0 0 0 0 0 0 0
49 1 5.4843 5.4843 0 0 0 0 0 0 0 0
50 1 8.22645 8.22645 0 0 0 0 0 0 0 0
51 1 8.22645 5.4843 2.74215 0 0 0 0 0 0 0
52 1 5.4843 8.22645 2.74215 0 0 0 0 0 0 0
53 1 6.85537 6.85537 1.37107 0 0 0 0 0 0 0
54 1 9.59752 9.59752 1.37107 0 0 0 0 0 0 0
55 1 9.59752 6.85537 4.11323 0 0 0 0 0 0 0
56 1 6.85537 9.59752 4.11323 0 0 0 0 0 0 0
57 1 5.4843 5.4843 5.4843 0 0 0 0 0 0 0
58 1 8.22645 8.22645 5.4843 0 0 0 0 0 0 0
59 1 8.22645 5.4843 8.22645 0 0 0 0 0 0 0
60 1 5.4843 8.22645 8.22645 0 0 0 0 0 0 0
61 1 6.85537 6.85537 6.85537 0 0 0 0 0 0 0
62 1 9.59752 9.59752 6.85537 0 0 0 0 0 0 0
63 1 9.59752 6.85537 9.59752 0 0 0 0 0 0 0
64 1 6.85537 9.59752 9.59752 0 0 0 0 0 0 0
ITEM: TIMESTEP
1
ITEM: NUMBER OF ATOMS
64
ITEM: BOX BOUNDS xy xz yz pp pp pp
3.4301954501391712e-05 1.0968561838689576e+01 1.0776303493800439e-06
3.7558970882756171e-05 1.0968567518547042e+01 -4.5902862731878190e-06
4.0180789575572362e-05 1.0968559472510425e+01 5.4242179241665579e-06
ITEM: ATOMS id type x y z ix iy iz c_ppa fx fy fz
1 1 -0.00934634 -0.00262626 -0.00795222 0 0 0 0 0.126631 -0.0508805 0.0696144
2 1 2.74861 2.74983 -0.00180545 0 0 0 0 -0.0662666 -0.145045 0.0353369
3 1 2.73804 0.00448013 2.74418 0 0 0 0 0.0235306 -0.0452345 0.00383353
4 1 0.00619528 2.74431 2.7493 0 0 0 0 -0.0275766 -0.131775 -0.0856197
5 1 1.37624 1.36095 1.36647 0 0 0 0 -0.0901335 0.148927 -0.0386202
6 1 4.11707 4.10453 1.3734 0 0 0 0 0.031628 0.121886 -0.0455613
7 1 4.1123 1.36826 4.11174 0 0 0 0 -0.0328753 0.0775039 0.0538859
8 1 1.37645 4.11719 4.10594 0 0 0 0 -0.0537437 -0.00060529 0.18008
9 1 0.000603931 -0.0096488 5.47901 0 0 0 0 -0.0512092 0.166939 0.160871
10 1 2.73637 2.74024 5.49339 0 0 0 0 0.0669741 0.027516 -0.090398
11 1 2.74087 -0.000787922 8.22616 0 0 0 0 -0.0038755 0.0188318 -0.024258
12 1 -0.00724578 2.74376 8.23053 0 0 0 0 -0.0724752 -0.0383331 0.0173896
13 1 1.36334 1.37618 6.86318 0 0 0 0 -0.0208026 -0.09998 -0.0616187
14 1 4.12061 4.10825 6.85925 0 0 0 0 -0.114598 0.127232 -0.0545546
15 1 4.11168 1.37227 9.59423 0 0 0 0 -0.0126889 -0.0719052 0.0741248
16 1 1.36536 4.10417 9.59859 0 0 0 0 0.0387547 0.144467 -0.0208762
17 1 -0.00466926 5.48942 -0.00687396 0 0 0 0 0.0277289 -0.0846432 0.140277
18 1 2.74103 8.22649 0.00439243 0 0 0 0 0.0185519 0.0420835 -0.0625854
19 1 2.74323 5.4777 2.73622 0 0 0 0 0.10069 0.0979172 0.0416834
20 1 0.00621407 8.21918 2.7456 0 0 0 0 -0.0382811 0.13749 -0.0192881
21 1 1.38083 6.85892 1.37134 0 0 0 0 -0.123169 -0.0964652 -0.0269531
22 1 4.1044 9.60719 1.36737 0 0 0 0 0.0617255 -0.103845 0.0799065
23 1 4.12339 6.86051 4.10781 0 0 0 0 -0.134271 -0.0881599 0.0238532
24 1 1.36859 9.6068 4.12184 0 0 0 0 0.0762292 -0.167402 -0.122256
25 1 -0.00777128 5.48409 5.48975 0 0 0 0 0.113985 0.0314493 -0.0697301
26 1 2.74305 8.22631 5.48304 0 0 0 0 0.0434946 0.0370639 0.0430878
27 1 2.73385 5.48797 8.22327 0 0 0 0 0.0671928 -0.102932 0.058061
28 1 0.0085498 8.21888 8.21888 0 0 0 0 -0.185561 0.0761747 0.136548
29 1 1.36561 6.86243 6.86326 0 0 0 0 0.0893063 -0.123276 -0.211247
30 1 4.12374 9.60618 6.85281 0 0 0 0 -0.13164 -0.136706 0.0574578
31 1 4.10814 6.85139 9.60437 0 0 0 0 -0.0206493 0.0838847 -0.119813
32 1 1.36938 9.58727 9.58975 0 0 0 0 0.00585493 0.0702454 0.0767417
33 1 5.48435 -0.00905554 -0.00232987 0 0 0 0 -0.0328508 0.143075 0.0165734
34 1 8.22038 2.73269 0.00115265 0 0 0 0 0.00222002 0.0940106 0.0404923
35 1 8.22947 -0.00790408 2.73802 0 0 0 0 -0.0941544 0.162611 0.0604971
36 1 5.48725 2.75021 2.75174 0 0 0 0 -0.0282418 -0.154987 -0.0775582
37 1 6.85115 1.36967 1.37375 0 0 0 0 -0.036951 -0.0416728 0.0199623
38 1 9.59394 4.10358 1.37666 0 0 0 0 0.0881427 0.0519804 -0.12369
39 1 9.59452 1.36351 4.11428 0 0 0 0 0.0975667 0.0261509 -0.04518
40 1 6.86297 4.10896 4.10555 0 0 0 0 -0.0105186 0.121939 0.170185
41 1 5.47996 -0.00943325 5.47575 0 0 0 0 0.133423 0.166508 0.0361653
42 1 8.23661 2.74078 5.48229 0 0 0 0 -0.0936088 0.0314501 0.0289784
43 1 8.22181 0.00697735 8.22294 0 0 0 0 -0.0169155 -0.0707968 0.0653058
44 1 5.47495 2.73513 8.22514 0 0 0 0 0.149038 0.0363569 0.006177
45 1 6.85468 1.37608 6.85104 0 0 0 0 -0.0606881 -0.0509689 -0.0712395
46 1 9.5908 4.12347 6.86115 0 0 0 0 0.0912436 -0.125257 -0.0450024
47 1 9.58889 1.3669 9.60782 0 0 0 0 0.0288336 0.0523808 -0.145161
48 1 6.86046 4.10703 9.58752 0 0 0 0 -0.0822167 0.0769591 0.0628906
49 1 5.47865 5.48983 -0.00617592 0 0 0 0 0.159549 -0.113159 0.0988647
50 1 8.2361 8.22781 -0.00497586 0 0 0 0 -0.129916 0.0426913 0.11845
51 1 8.23066 5.47855 2.73653 0 0 0 0 -0.0292888 0.073032 0.0443376
52 1 5.4853 8.22623 2.73775 0 0 0 0 0.0153977 0.160815 0.0189977
53 1 6.85813 6.86166 1.37804 0 0 0 0 0.0107312 -0.0864281 -0.164755
54 1 9.59247 9.6057 1.37731 0 0 0 0 0.161088 -0.18865 -0.0774225
55 1 9.59539 6.8573 4.11281 0 0 0 0 -0.00261827 -0.0516436 0.0076638
56 1 6.86438 9.60102 4.11561 0 0 0 0 -0.10518 -0.0870302 -0.0811874
57 1 5.48851 5.4926 5.48803 0 0 0 0 0.0324196 -0.127013 -0.0718852
58 1 8.22594 8.22983 5.48371 0 0 0 0 0.102374 0.0435428 0.0110584
59 1 8.23576 5.49107 8.22561 0 0 0 0 -0.190519 -0.0020235 -0.00606807
60 1 5.48715 8.23476 8.23734 0 0 0 0 -0.0669611 -0.149733 -0.12806
61 1 6.86222 6.86417 6.84763 0 0 0 0 -0.0686102 -0.0169725 0.167204
62 1 9.60128 9.59946 6.86376 0 0 0 0 -0.0352028 -0.037137 -0.0707847
63 1 9.59145 6.85698 9.59801 0 0 0 0 0.148455 0.0306414 -0.0593138
64 1 6.85073 9.59362 9.5992 0 0 0 0 0.1515 0.0669051 -0.005868
ITEM: TIMESTEP
2
ITEM: NUMBER OF ATOMS
64
ITEM: BOX BOUNDS xy xz yz pp pp pp
1.2262615350417392e-04 1.0968444563433820e+01 -7.0723996645591035e-06
1.5004329121470761e-04 1.0968470116859814e+01 -2.5391313010114997e-05
1.6041207555872461e-04 1.0968439241224441e+01 2.0506851028504107e-05
ITEM: ATOMS id type x y z ix iy iz c_ppa fx fy fz
1 1 -0.0184413 -0.00524749 -0.0157286 0 0 0 0 0.254194 -0.100348 0.143783
2 1 2.75501 2.75734 -0.00348227 0 0 0 0 -0.128931 -0.282552 0.0651974
3 1 2.734 0.0089754 2.74625 0 0 0 0 0.0432407 -0.0878788 0.0105176
4 1 0.0124235 2.74632 2.75637 0 0 0 0 -0.0567793 -0.256223 -0.166386
5 1 1.38134 1.35108 1.36186 0 0 0 0 -0.178804 0.292102 -0.0780759
6 1 4.12097 4.09602 1.37573 0 0 0 0 0.0618509 0.245298 -0.0924159
7 1 4.11134 1.36562 4.11035 0 0 0 0 -0.0607634 0.150517 0.107294
8 1 1.3818 4.12117 4.09892 0 0 0 0 -0.110029 -0.00505719 0.358518
9 1 0.0012067 -0.0189884 5.47394 0 0 0 0 -0.11246 0.337623 0.324895
10 1 2.7307 2.73841 5.50235 0 0 0 0 0.129519 0.0544725 -0.175225
11 1 2.73962 -0.00146779 8.22581 0 0 0 0 -0.00685822 0.0376423 -0.0472658
12 1 -0.0145282 2.74537 8.23459 0 0 0 0 -0.145425 -0.0726488 0.0341259
13 1 1.35563 1.38122 6.87088 0 0 0 0 -0.0360822 -0.200105 -0.124522
14 1 4.12783 4.10347 6.86304 0 0 0 0 -0.228768 0.254056 -0.113881
15 1 4.11011 1.37343 9.59098 0 0 0 0 -0.0258291 -0.143091 0.147527
16 1 1.35975 4.09535 9.59957 0 0 0 0 0.0746006 0.288313 -0.0368357
17 1 -0.00922766 5.49442 -0.013475 0 0 0 0 0.062286 -0.171173 0.274193
18 1 2.73996 8.22655 0.00877885 0 0 0 0 0.0361338 0.0848174 -0.121587
19 1 2.74449 5.47123 2.73039 0 0 0 0 0.197385 0.190958 0.074394
20 1 0.0124418 8.21207 2.74907 0 0 0 0 -0.0728531 0.264923 -0.0340097
21 1 1.39047 6.86231 1.37164 0 0 0 0 -0.245258 -0.191728 -0.0499085
22 1 4.09566 9.61666 1.36384 0 0 0 0 0.124408 -0.206101 0.153577
23 1 4.13337 6.8655 4.10245 0 0 0 0 -0.265025 -0.176449 0.0559001
24 1 1.36626 9.6158 4.1303 0 0 0 0 0.159299 -0.335647 -0.246401
25 1 -0.0153213 5.48393 5.49511 0 0 0 0 0.227197 0.0643532 -0.141532
26 1 2.74403 8.22618 5.48184 0 0 0 0 0.0815928 0.072726 0.0843281
27 1 2.72566 5.4915 8.22013 0 0 0 0 0.129939 -0.200819 0.114033
28 1 0.0169028 8.21139 8.21147 0 0 0 0 -0.376871 0.164179 0.279774
29 1 1.36031 6.86931 6.87084 0 0 0 0 0.188736 -0.257728 -0.431475
30 1 4.13407 9.6146 6.8503 0 0 0 0 -0.261182 -0.269834 0.119411
31 1 4.10303 6.84752 9.61098 0 0 0 0 -0.0434328 0.166567 -0.23724
32 1 1.36772 9.57706 9.58203 0 0 0 0 0.0138343 0.142043 0.155002
33 1 5.48436 -0.0178395 -0.00455689 0 0 0 0 -0.0651333 0.288168 0.0369148
34 1 8.21428 2.72339 0.00244098 0 0 0 0 0.0004612 0.185377 0.0781666
35 1 8.23231 -0.0155073 2.73401 0 0 0 0 -0.191309 0.32237 0.124387
36 1 5.49015 2.75809 2.76126 0 0 0 0 -0.0620983 -0.307123 -0.153167
37 1 6.84684 1.36826 1.37652 0 0 0 0 -0.0728572 -0.083434 0.0392844
38 1 9.59042 4.09402 1.38213 0 0 0 0 0.174549 0.102093 -0.243565
39 1 9.59158 1.35605 4.11528 0 0 0 0 0.191805 0.0512756 -0.0860775
40 1 6.87052 4.10489 4.09812 0 0 0 0 -0.01702 0.241598 0.337729
41 1 5.4758 -0.0185579 5.46724 0 0 0 0 0.26374 0.330807 0.0659987
42 1 8.24659 2.7395 5.48032 0 0 0 0 -0.182011 0.0630415 0.0589367
43 1 8.2171 0.0139395 8.21947 0 0 0 0 -0.0321138 -0.135267 0.126059
44 1 5.46579 2.7282 8.2238 0 0 0 0 0.295804 0.0690361 0.00974942
45 1 6.85386 1.38107 6.84659 0 0 0 0 -0.116899 -0.0979277 -0.138394
46 1 9.58414 4.13356 6.86684 0 0 0 0 0.185393 -0.254919 -0.0970008
47 1 9.58022 1.36286 9.61787 0 0 0 0 0.0579676 0.100116 -0.290971
48 1 6.86539 4.10097 9.57755 0 0 0 0 -0.160758 0.151488 0.125832
49 1 5.47321 5.4952 -0.0121359 0 0 0 0 0.31745 -0.230022 0.202518
50 1 8.24553 8.2292 -0.00970885 0 0 0 0 -0.256213 0.0906166 0.233039
51 1 8.23479 5.47291 2.73101 0 0 0 0 -0.059205 0.141985 0.0862447
52 1 5.4863 8.22619 2.73341 0 0 0 0 0.0323042 0.315514 0.0354471
53 1 6.86087 6.8678 1.38484 0 0 0 0 0.0224261 -0.172104 -0.325314
54 1 9.58758 9.61356 1.38351 0 0 0 0 0.326173 -0.376976 -0.167988
55 1 9.59318 6.85913 4.11243 0 0 0 0 -0.00200072 -0.102388 0.0156195
56 1 6.87321 9.60434 4.1179 0 0 0 0 -0.209566 -0.167381 -0.155173
57 1 5.49275 5.50073 5.49166 0 0 0 0 0.0566812 -0.249288 -0.140519
58 1 8.22552 8.23324 5.48314 0 0 0 0 0.202548 0.0873351 0.0182584
59 1 8.24475 5.49785 8.22473 0 0 0 0 -0.378581 -0.00157369 -0.0106462
60 1 5.48989 8.24283 8.24801 0 0 0 0 -0.138816 -0.295157 -0.259024
61 1 6.86894 6.87293 6.84009 0 0 0 0 -0.139393 -0.0414101 0.329864
62 1 9.60491 9.60129 6.87202 0 0 0 0 -0.0684285 -0.0688929 -0.142578
63 1 9.58551 6.85862 9.59835 0 0 0 0 0.294732 0.0562146 -0.114245
64 1 6.84625 9.58976 9.6008 0 0 0 0 0.301506 0.133623 -0.00509455
ITEM: TIMESTEP
3
ITEM: NUMBER OF ATOMS
64
ITEM: BOX BOUNDS xy xz yz pp pp pp
2.4134797609952897e-04 1.0968253359854645e+01 -3.5393787561596807e-05
3.3608477539814885e-04 1.0968308665805125e+01 -6.9551681693513784e-05
3.5849904323548287e-04 1.0968241154256763e+01 4.5097280523278454e-05
ITEM: ATOMS id type x y z ix iy iz c_ppa fx fy fz
1 1 -0.0271118 -0.00793305 -0.0232296 0 0 0 0 0.374659 -0.151304 0.213398
2 1 2.76127 2.76451 -0.00499164 0 0 0 0 -0.191742 -0.414976 0.0895741
3 1 2.73005 0.0134258 2.74838 0 0 0 0 0.0631824 -0.128344 0.0176328
4 1 0.0186378 2.74802 2.76326 0 0 0 0 -0.0886187 -0.371695 -0.245202
5 1 1.38625 1.34167 1.35721 0 0 0 0 -0.265304 0.429523 -0.116946
6 1 4.12496 4.08788 1.37798 0 0 0 0 0.0914556 0.359234 -0.132386
7 1 4.1103 1.36324 4.10913 0 0 0 0 -0.0850754 0.218977 0.156758
8 1 1.38704 4.12516 4.09242 0 0 0 0 -0.159225 -0.012003 0.523757
9 1 0.00171832 -0.0277856 5.46931 0 0 0 0 -0.179662 0.498055 0.482303
10 1 2.72524 2.73669 5.51107 0 0 0 0 0.190271 0.0834525 -0.255932
11 1 2.73837 -0.00201524 8.22534 0 0 0 0 -0.0114149 0.0528453 -0.0696876
12 1 -0.0219581 2.74692 8.23866 0 0 0 0 -0.210814 -0.105415 0.0486783
13 1 1.34791 1.38604 6.8784 0 0 0 0 -0.0455479 -0.289757 -0.182254
14 1 4.13475 4.09907 6.86664 0 0 0 0 -0.337888 0.374729 -0.17313
15 1 4.10851 1.37446 9.58787 0 0 0 0 -0.0394296 -0.211671 0.218594
16 1 1.35426 4.08694 9.60044 0 0 0 0 0.10937 0.423151 -0.0495564
17 1 -0.0136355 5.49918 -0.0196214 0 0 0 0 0.0948787 -0.250785 0.396123
18 1 2.73897 8.22669 0.013076 0 0 0 0 0.0539183 0.12638 -0.179089
19 1 2.74603 5.46503 2.7247 0 0 0 0 0.286598 0.278702 0.104314
20 1 0.0186234 8.20528 2.75253 0 0 0 0 -0.106174 0.384091 -0.0460792
21 1 1.39981 6.86542 1.37192 0 0 0 0 -0.362821 -0.282068 -0.0681201
22 1 4.08709 9.62579 1.36057 0 0 0 0 0.182984 -0.298368 0.222563
23 1 4.14299 6.87024 4.09719 0 0 0 0 -0.385787 -0.256439 0.0879151
24 1 1.36417 9.62429 4.13844 0 0 0 0 0.246851 -0.502548 -0.371603
25 1 -0.0225058 5.48386 5.50027 0 0 0 0 0.329656 0.0973004 -0.207868
26 1 2.74513 8.22613 5.48075 0 0 0 0 0.119567 0.105152 0.119143
27 1 2.71766 5.49477 8.21711 0 0 0 0 0.192663 -0.293999 0.170396
28 1 0.0247802 8.20409 8.2044 0 0 0 0 -0.568457 0.258432 0.422536
29 1 1.35529 6.87582 6.87781 0 0 0 0 0.294729 -0.393201 -0.64772
30 1 4.14403 9.6226 6.84794 0 0 0 0 -0.38708 -0.398976 0.184601
31 1 4.09784 6.84386 9.61722 0 0 0 0 -0.0648243 0.245416 -0.349434
32 1 1.36611 9.567 9.57445 0 0 0 0 0.0213787 0.213847 0.230869
33 1 5.48428 -0.0261538 -0.00665531 0 0 0 0 -0.0955057 0.422646 0.0583218
34 1 8.20813 2.71438 0.00391457 0 0 0 0 0.00043579 0.278609 0.115479
35 1 8.23485 -0.0225916 2.73021 0 0 0 0 -0.289384 0.480247 0.191452
36 1 5.49296 2.76559 2.77061 0 0 0 0 -0.0968348 -0.4542 -0.227199
37 1 6.84242 1.36679 1.3794 0 0 0 0 -0.105394 -0.121383 0.0571708
38 1 9.58707 4.08463 1.38733 0 0 0 0 0.254831 0.142885 -0.352815
39 1 9.58883 1.34871 4.11619 0 0 0 0 0.281168 0.0784911 -0.122906
40 1 6.87801 4.10117 4.09118 0 0 0 0 -0.0137591 0.352586 0.492359
41 1 5.47199 -0.0271495 5.45883 0 0 0 0 0.38171 0.484799 0.0860236
42 1 8.25626 2.73835 5.47844 0 0 0 0 -0.267364 0.0943312 0.0879234
43 1 8.21228 0.0207964 8.21615 0 0 0 0 -0.0427718 -0.198378 0.181273
44 1 5.45701 2.7214 8.22244 0 0 0 0 0.438638 0.103699 0.0135443
45 1 6.85285 1.38599 6.84193 0 0 0 0 -0.166969 -0.143485 -0.196116
46 1 9.57765 4.14333 6.87238 0 0 0 0 0.275426 -0.382116 -0.148093
47 1 9.57155 1.35902 9.62745 0 0 0 0 0.0834597 0.146567 -0.4287
48 1 6.87006 4.09515 9.56769 0 0 0 0 -0.230435 0.215788 0.180615
49 1 5.46819 5.50025 -0.0177396 0 0 0 0 0.461003 -0.337065 0.29893
50 1 8.25456 8.23067 -0.0140437 0 0 0 0 -0.377601 0.13708 0.345169
51 1 8.23878 5.46746 2.72565 0 0 0 0 -0.0882187 0.213309 0.126426
52 1 5.48733 8.22655 2.72916 0 0 0 0 0.0455105 0.456399 0.049106
53 1 6.86361 6.8737 1.39125 0 0 0 0 0.0334883 -0.254957 -0.47529
54 1 9.58305 9.62085 1.38953 0 0 0 0 0.484759 -0.557949 -0.260332
55 1 9.59089 6.86081 4.11208 0 0 0 0 -0.00039005 -0.149358 0.0223033
56 1 6.88171 9.60737 4.12001 0 0 0 0 -0.306213 -0.238916 -0.225607
57 1 5.49704 5.50852 5.4951 0 0 0 0 0.0770357 -0.360565 -0.200115
58 1 8.22532 8.23674 5.48259 0 0 0 0 0.299259 0.129105 0.0240801
59 1 8.25316 5.50464 8.22379 0 0 0 0 -0.562388 -0.0027496 -0.0124125
60 1 5.49241 8.25047 8.25828 0 0 0 0 -0.212174 -0.433867 -0.386482
61 1 6.87542 6.88162 6.83298 0 0 0 0 -0.207306 -0.0692172 0.482974
62 1 9.60836 9.60298 6.88007 0 0 0 0 -0.0994501 -0.0983564 -0.208271
63 1 9.57988 6.86033 9.59848 0 0 0 0 0.434982 0.0775366 -0.164105
64 1 6.84212 9.58603 9.60234 0 0 0 0 0.448154 0.200743 0.00114283
ITEM: TIMESTEP
4
ITEM: NUMBER OF ATOMS
64
ITEM: BOX BOUNDS xy xz yz pp pp pp
3.6937091471313114e-04 1.0967990407020778e+01 -9.5150319183889438e-05
5.9394368514098517e-04 1.0968085373817154e+01 -1.4472504532207946e-04
6.3132147854716436e-04 1.0967968331821449e+01 7.9664202293570040e-05
ITEM: ATOMS id type x y z ix iy iz c_ppa fx fy fz
1 1 -0.0351958 -0.0107548 -0.0303627 0 0 0 0 0.488566 -0.197171 0.279553
2 1 2.7673 2.77114 -0.00630321 0 0 0 0 -0.248173 -0.532389 0.107993
3 1 2.72622 0.0177743 2.75057 0 0 0 0 0.0818098 -0.165896 0.0236306
4 1 0.0247865 2.74925 2.76984 0 0 0 0 -0.121426 -0.472078 -0.318953
5 1 1.39083 1.3329 1.35245 0 0 0 0 -0.341337 0.551661 -0.151618
6 1 4.12908 4.08024 1.38011 0 0 0 0 0.117658 0.464561 -0.171188
7 1 4.10915 1.36121 4.10815 0 0 0 0 -0.106074 0.28114 0.20219
8 1 1.39209 4.12917 4.08665 0 0 0 0 -0.20589 -0.024567 0.675789
9 1 0.00203941 -0.0358219 5.46535 0 0 0 0 -0.248251 0.64929 0.631999
10 1 2.72005 2.73513 5.51944 0 0 0 0 0.244916 0.111358 -0.327575
11 1 2.73712 -0.00241078 8.22475 0 0 0 0 -0.0184623 0.064795 -0.089742
12 1 -0.0296372 2.74837 8.24276 0 0 0 0 -0.265838 -0.134248 0.0601652
13 1 1.34016 1.39052 6.88564 0 0 0 0 -0.0522304 -0.37051 -0.235066
14 1 4.14118 4.09521 6.86999 0 0 0 0 -0.437167 0.483494 -0.228397
15 1 4.10684 1.37526 9.58501 0 0 0 0 -0.0529116 -0.275654 0.283619
16 1 1.34894 4.07915 9.60118 0 0 0 0 0.141869 0.545526 -0.0590412
17 1 -0.0178571 5.5036 -0.0251488 0 0 0 0 0.132099 -0.324469 0.505144
18 1 2.73806 8.22697 0.0172019 0 0 0 0 0.0690033 0.16482 -0.234851
19 1 2.74798 5.45921 2.71919 0 0 0 0 0.363838 0.359029 0.130725
20 1 0.0246998 8.19899 2.75596 0 0 0 0 -0.135094 0.487184 -0.0550597
21 1 1.40869 6.86813 1.37216 0 0 0 0 -0.472289 -0.363043 -0.0798483
22 1 4.07876 9.63446 1.35767 0 0 0 0 0.237304 -0.381596 0.282294
23 1 4.15206 6.87461 4.09206 0 0 0 0 -0.492576 -0.329298 0.122685
24 1 1.36244 9.63203 4.14609 0 0 0 0 0.334405 -0.658367 -0.487115
25 1 -0.029197 5.48393 5.50514 0 0 0 0 0.42341 0.128443 -0.269187
26 1 2.7464 8.22619 5.47983 0 0 0 0 0.153083 0.1323 0.148112
27 1 2.70992 5.49764 8.21428 0 0 0 0 0.253451 -0.377189 0.221334
28 1 0.0319017 8.19712 8.19787 0 0 0 0 -0.753524 0.356074 0.560453
29 1 1.3507 6.88177 6.88387 0 0 0 0 0.402353 -0.52794 -0.855976
30 1 4.15343 9.63 6.84582 0 0 0 0 -0.503057 -0.515086 0.250032
31 1 4.09254 6.84053 9.62291 0 0 0 0 -0.0845544 0.317035 -0.45344
32 1 1.36452 9.55719 9.56714 0 0 0 0 0.03574 0.283019 0.300541
33 1 5.48407 -0.0338157 -0.0085989 0 0 0 0 -0.125194 0.543266 0.0784764
34 1 8.20194 2.70579 0.00562162 0 0 0 0 -0.00323477 0.36659 0.14744
35 1 8.23694 -0.0289417 2.72671 0 0 0 0 -0.381824 0.627478 0.255062
36 1 5.49562 2.77251 2.77969 0 0 0 0 -0.133277 -0.588924 -0.29655
37 1 6.83782 1.36522 1.38241 0 0 0 0 -0.133959 -0.155391 0.0716734
38 1 9.584 4.07545 1.3921 0 0 0 0 0.323804 0.178725 -0.449253
39 1 9.58641 1.34154 4.11695 0 0 0 0 0.360834 0.105972 -0.154689
40 1 6.88545 4.09796 4.08494 0 0 0 0 -0.00861971 0.449386 0.632638
41 1 5.46869 -0.0349984 5.45054 0 0 0 0 0.486118 0.626777 0.101083
42 1 8.26551 2.73736 5.47667 0 0 0 0 -0.345953 0.122569 0.115061
43 1 8.20735 0.0274602 8.21303 0 0 0 0 -0.0501691 -0.256205 0.227083
44 1 5.4488 2.7148 8.22106 0 0 0 0 0.570265 0.137573 0.0141957
45 1 6.85157 1.39077 6.83698 0 0 0 0 -0.208884 -0.184864 -0.244156
46 1 9.57145 4.1526 6.8777 0 0 0 0 0.358962 -0.50095 -0.200457
47 1 9.56291 1.35545 9.63639 0 0 0 0 0.105837 0.186003 -0.555612
48 1 6.87436 4.08964 9.55802 0 0 0 0 -0.291037 0.272838 0.235034
49 1 5.4638 5.50485 -0.022858 0 0 0 0 0.591802 -0.437487 0.389213
50 1 8.263 8.2323 -0.0178296 0 0 0 0 -0.48883 0.180779 0.447732
51 1 8.24259 5.46231 2.7205 0 0 0 0 -0.115616 0.281017 0.162643
52 1 5.48839 8.2275 2.72501 0 0 0 0 0.0559836 0.57921 0.0617387
53 1 6.86635 6.87922 1.39706 0 0 0 0 0.0483623 -0.328403 -0.608107
54 1 9.5791 9.62733 1.39524 0 0 0 0 0.634225 -0.725087 -0.352875
55 1 9.58852 6.86228 4.11179 0 0 0 0 0.00394466 -0.191867 0.0280879
56 1 6.88973 9.61003 4.12181 0 0 0 0 -0.39361 -0.30311 -0.285983
57 1 5.50141 5.51582 5.49826 0 0 0 0 0.0905744 -0.457518 -0.252576
58 1 8.22544 8.24039 5.48208 0 0 0 0 0.388705 0.164827 0.0289196
59 1 8.26072 5.51142 8.2228 0 0 0 0 -0.734586 -0.00342676 -0.0123971
60 1 5.49459 8.25748 8.26799 0 0 0 0 -0.285109 -0.563758 -0.511138
61 1 6.88156 6.8902 6.82652 0 0 0 0 -0.272508 -0.0964442 0.619681
62 1 9.61157 9.60448 6.88781 0 0 0 0 -0.131939 -0.120114 -0.267197
63 1 9.57474 6.86213 9.59833 0 0 0 0 0.561157 0.0938273 -0.204704
64 1 6.83854 9.58254 9.60382 0 0 0 0 0.583128 0.266483 0.01073
ITEM: TIMESTEP
5
ITEM: NUMBER OF ATOMS
64
ITEM: BOX BOUNDS xy xz yz pp pp pp
4.8475730581972007e-04 1.0967660038981386e+01 -1.9647444177576655e-04
9.2099721836280679e-04 1.0967804032155650e+01 -2.5838257101718268e-04
9.7485291662824380e-04 1.0967624800383369e+01 1.2537607401234618e-04
ITEM: ATOMS id type x y z ix iy iz c_ppa fx fy fz
1 1 -0.0425416 -0.0137787 -0.0370416 0 0 0 0 0.590349 -0.237259 0.338011
2 1 2.77301 2.77707 -0.0073958 0 0 0 0 -0.301469 -0.635721 0.121736
3 1 2.72252 0.0219671 2.75283 0 0 0 0 0.100138 -0.199797 0.0265917
4 1 0.0308162 2.74987 2.77602 0 0 0 0 -0.151318 -0.556299 -0.38703
5 1 1.39499 1.32495 1.34754 0 0 0 0 -0.410157 0.659524 -0.180116
6 1 4.13336 4.07326 1.38206 0 0 0 0 0.141272 0.557208 -0.203556
7 1 4.10785 1.35963 4.10745 0 0 0 0 -0.12387 0.336313 0.242839
8 1 1.39688 4.13316 4.08183 0 0 0 0 -0.248138 -0.0383195 0.805343
9 1 0.00206772 -0.0428918 5.46226 0 0 0 0 -0.310895 0.77861 0.763872
10 1 2.7152 2.73377 5.52736 0 0 0 0 0.290675 0.137511 -0.391311
11 1 2.73585 -0.00263979 8.22399 0 0 0 0 -0.0268776 0.0731234 -0.10657
12 1 -0.0376543 2.74967 8.24691 0 0 0 0 -0.308949 -0.159611 0.0683523
13 1 1.33235 1.39455 6.89254 0 0 0 0 -0.0523149 -0.436891 -0.282006
14 1 4.14699 4.09203 6.87301 0 0 0 0 -0.525882 0.580382 -0.279721
15 1 4.10508 1.37575 9.58248 0 0 0 0 -0.0655695 -0.331253 0.340139
16 1 1.34381 4.07213 9.60179 0 0 0 0 0.171754 0.65121 -0.0644134
17 1 -0.0218508 5.50758 -0.0299119 0 0 0 0 0.168095 -0.392085 0.600347
18 1 2.73725 8.22745 0.0210761 0 0 0 0 0.0820609 0.198329 -0.285972
19 1 2.75044 5.45389 2.71389 0 0 0 0 0.429637 0.429471 0.154566
20 1 0.0306177 8.19334 2.75936 0 0 0 0 -0.162137 0.57349 -0.0610212
21 1 1.41693 6.87032 1.37235 0 0 0 0 -0.572882 -0.434407 -0.0848994
22 1 4.07074 9.64256 1.35521 0 0 0 0 0.288883 -0.455295 0.33647
23 1 4.16044 6.87851 4.08712 0 0 0 0 -0.582629 -0.391026 0.156701
24 1 1.36116 9.63883 4.15309 0 0 0 0 0.415025 -0.796897 -0.590983
25 1 -0.0352796 5.48418 5.50965 0 0 0 0 0.507084 0.155557 -0.327415
26 1 2.74786 8.2264 5.47911 0 0 0 0 0.184432 0.154036 0.170973
27 1 2.70251 5.5 8.21173 0 0 0 0 0.308152 -0.450077 0.265359
28 1 0.0379959 8.19061 8.19207 0 0 0 0 -0.921933 0.44748 0.683303
29 1 1.34666 6.88699 6.88874 0 0 0 0 0.505965 -0.651183 -1.04269
30 1 4.16209 9.63665 6.84402 0 0 0 0 -0.605561 -0.615323 0.308903
31 1 4.08708 6.83762 9.62793 0 0 0 0 -0.0999606 0.377031 -0.541288
32 1 1.36296 9.54773 9.56019 0 0 0 0 0.0516351 0.351653 0.364992
33 1 5.48368 -0.0406626 -0.0103641 0 0 0 0 -0.151506 0.649775 0.0992063
34 1 8.1957 2.69775 0.00760213 0 0 0 0 -0.00676433 0.450827 0.175881
35 1 8.23847 -0.0343582 2.7236 0 0 0 0 -0.463026 0.757913 0.311882
36 1 5.49808 2.77865 2.7884 0 0 0 0 -0.167319 -0.707355 -0.356174
37 1 6.83301 1.36348 1.38558 0 0 0 0 -0.156701 -0.182913 0.0814887
38 1 9.58131 4.06653 1.39631 0 0 0 0 0.384433 0.209648 -0.530033
39 1 9.58441 1.33456 4.11752 0 0 0 0 0.428846 0.135876 -0.179852
40 1 6.89282 4.09539 4.07958 0 0 0 0 -0.00611556 0.53376 0.756864
41 1 5.46604 -0.041912 5.44238 0 0 0 0 0.574317 0.746973 0.112026
42 1 8.27422 2.73659 5.47506 0 0 0 0 -0.417262 0.146986 0.139486
43 1 8.20229 0.03385 8.21019 0 0 0 0 -0.0552885 -0.30848 0.262683
44 1 5.44134 2.70843 8.21966 0 0 0 0 0.686825 0.169559 0.0125205
45 1 6.84996 1.39536 6.83167 0 0 0 0 -0.238895 -0.220626 -0.283147
46 1 9.56566 4.1612 6.88273 0 0 0 0 0.434988 -0.612131 -0.251095
47 1 9.55432 1.35219 9.64451 0 0 0 0 0.12596 0.220488 -0.668686
48 1 6.87818 4.08454 9.54862 0 0 0 0 -0.34519 0.323325 0.286821
49 1 5.46019 5.50884 -0.0273712 0 0 0 0 0.705862 -0.525632 0.463831
50 1 8.27071 8.23414 -0.0209298 0 0 0 0 -0.585894 0.219061 0.538758
51 1 8.24618 5.45754 2.71561 0 0 0 0 -0.139512 0.344287 0.194361
52 1 5.48949 8.22922 2.72099 0 0 0 0 0.0629151 0.677533 0.0727272
53 1 6.86911 6.88428 1.4021 0 0 0 0 0.0596012 -0.392129 -0.722648
54 1 9.57594 9.63275 1.40053 0 0 0 0 0.767521 -0.871524 -0.436289
55 1 9.58606 6.86346 4.11155 0 0 0 0 0.0112292 -0.227924 0.031699
56 1 6.89714 9.61223 4.12325 0 0 0 0 -0.473751 -0.355788 -0.340772
57 1 5.50587 5.5225 5.50107 0 0 0 0 0.100058 -0.539221 -0.297244
58 1 8.22602 8.24423 5.48161 0 0 0 0 0.466883 0.192405 0.0333764
59 1 8.26719 5.51822 8.22175 0 0 0 0 -0.888784 -0.00485531 -0.0111161
60 1 5.49632 8.26369 8.27696 0 0 0 0 -0.353802 -0.677713 -0.622327
61 1 6.88725 6.89864 6.82089 0 0 0 0 -0.333647 -0.127207 0.738458
62 1 9.61449 9.60578 6.89517 0 0 0 0 -0.164205 -0.136405 -0.319342
63 1 9.57027 6.86405 9.59784 0 0 0 0 0.672285 0.105694 -0.234264
64 1 6.83567 9.57937 9.60527 0 0 0 0 0.701324 0.326309 0.0214133
ITEM: TIMESTEP
6
ITEM: NUMBER OF ATOMS
64
ITEM: BOX BOUNDS xy xz yz pp pp pp
5.6705621338042523e-04 1.0967267184185186e+01 -3.4810581455636369e-04
1.3144528569180025e-03 1.0967468725895886e+01 -4.1730708687653928e-04
1.3845858355585605e-03 1.0967215067464437e+01 1.8352545280359207e-04
ITEM: ATOMS id type x y z ix iy iz c_ppa fx fy fz
1 1 -0.0490149 -0.0170629 -0.0431911 0 0 0 0 0.679791 -0.268469 0.386594
2 1 2.77832 2.78216 -0.00825516 0 0 0 0 -0.351063 -0.720297 0.129461
3 1 2.71898 0.0259557 2.75516 0 0 0 0 0.113679 -0.225121 0.0258423
4 1 0.0366775 2.74976 2.78171 0 0 0 0 -0.178047 -0.623229 -0.44635
5 1 1.39862 1.31795 1.34243 0 0 0 0 -0.468378 0.749087 -0.200131
6 1 4.13783 4.06706 1.38377 0 0 0 0 0.160945 0.634133 -0.232421
7 1 4.10638 1.35857 4.10711 0 0 0 0 -0.137624 0.384487 0.278742
8 1 1.40134 4.13712 4.07814 0 0 0 0 -0.284608 -0.0545592 0.910135
9 1 0.00170883 -0.0488205 5.46022 0 0 0 0 -0.362987 0.885022 0.87522
10 1 2.71074 2.73263 5.53475 0 0 0 0 0.329904 0.161913 -0.442339
11 1 2.73454 -0.00269269 8.22306 0 0 0 0 -0.0367276 0.0768519 -0.120407
12 1 -0.0460819 2.7508 8.25112 0 0 0 0 -0.336397 -0.179639 0.0763263
13 1 1.32448 1.39804 6.89904 0 0 0 0 -0.0473649 -0.48855 -0.322163
14 1 4.15205 4.08968 6.87563 0 0 0 0 -0.598957 0.660056 -0.323254
15 1 4.1032 1.37584 9.58037 0 0 0 0 -0.0752137 -0.376452 0.387632
16 1 1.33891 4.06603 9.60227 0 0 0 0 0.196724 0.738645 -0.0662198
17 1 -0.0255771 5.51101 -0.0337846 0 0 0 0 0.203628 -0.452155 0.677692
18 1 2.73655 8.22816 0.0246242 0 0 0 0 0.0908068 0.225054 -0.330527
19 1 2.75348 5.44916 2.70884 0 0 0 0 0.477314 0.488909 0.179155
20 1 0.0363274 8.18844 2.7627 0 0 0 0 -0.184599 0.638788 -0.0654097
21 1 1.4244 6.87191 1.37247 0 0 0 0 -0.657941 -0.493773 -0.0852957
22 1 4.06307 9.64998 1.35326 0 0 0 0 0.335616 -0.513926 0.379568
23 1 4.16798 6.88187 4.08241 0 0 0 0 -0.65568 -0.440312 0.189404
24 1 1.36044 9.64448 4.1593 0 0 0 0 0.481662 -0.913715 -0.675419
25 1 -0.040652 5.48466 5.5137 0 0 0 0 0.576662 0.177442 -0.380659
26 1 2.74954 8.22679 5.47862 0 0 0 0 0.212434 0.168397 0.18707
27 1 2.6955 5.50175 8.2095 0 0 0 0 0.358683 -0.510186 0.302286
28 1 0.0428153 8.18469 8.18718 0 0 0 0 -1.06317 0.527556 0.784263
29 1 1.3433 6.89131 6.89215 0 0 0 0 0.596531 -0.755789 -1.1999
30 1 4.16987 9.64242 6.84263 0 0 0 0 -0.692581 -0.699638 0.358083
31 1 4.08142 6.83523 9.63216 0 0 0 0 -0.104667 0.422812 -0.613648
32 1 1.36143 9.53871 9.55369 0 0 0 0 0.0699928 0.415513 0.421245
33 1 5.48309 -0.0465514 -0.0119272 0 0 0 0 -0.174941 0.738833 0.119713
34 1 8.1894 2.69035 0.00989091 0 0 0 0 -0.0119279 0.524904 0.198029
35 1 8.23932 -0.0386647 2.72095 0 0 0 0 -0.527419 0.864629 0.356339
36 1 5.50028 2.78386 2.79665 0 0 0 0 -0.19795 -0.805214 -0.406727
37 1 6.82796 1.36154 1.3889 0 0 0 0 -0.176982 -0.201764 0.0898733
38 1 9.57907 4.05792 1.39984 0 0 0 0 0.434774 0.235177 -0.594951
39 1 9.58293 1.32783 4.11785 0 0 0 0 0.482935 0.168926 -0.201241
40 1 6.90014 4.09357 4.07527 0 0 0 0 -0.00506679 0.600272 0.859653
41 1 5.46415 -0.0477277 5.43438 0 0 0 0 0.64149 0.84837 0.125309
42 1 8.28229 2.73605 5.47365 0 0 0 0 -0.474491 0.167187 0.157796
43 1 8.19708 0.0398927 8.20767 0 0 0 0 -0.0546264 -0.356254 0.287038
44 1 5.43477 2.70233 8.21824 0 0 0 0 0.783953 0.201372 0.00897483
45 1 6.84797 1.3997 6.82596 0 0 0 0 -0.257401 -0.25475 -0.310098
46 1 9.56037 4.16899 6.88739 0 0 0 0 0.50103 -0.707994 -0.300185
47 1 9.54581 1.34929 9.65166 0 0 0 0 0.142057 0.245864 -0.761777
48 1 6.88147 4.07991 9.53956 0 0 0 0 -0.390385 0.36612 0.336005
49 1 5.45754 5.51211 -0.0311817 0 0 0 0 0.795121 -0.596498 0.523321
50 1 8.27755 8.23624 -0.0232241 0 0 0 0 -0.665203 0.245533 0.611952
51 1 8.2495 5.45325 2.71102 0 0 0 0 -0.160095 0.401304 0.220856
52 1 5.49063 8.23185 2.71709 0 0 0 0 0.0672674 0.749888 0.0823656
53 1 6.8719 6.88879 1.40619 0 0 0 0 0.0662454 -0.446902 -0.818851
54 1 9.57373 9.63693 1.40527 0 0 0 0 0.877274 -0.990849 -0.50597