LAMMPS (22 Jul 2025 - Update 2)
  using 1 OpenMP thread(s) per MPI task
echo both
boundary p p p
units metal
atom_modify map yes
neigh_modify delay 0 every 1 check yes

read_data crystal.dat
Reading data file ...
  triclinic box = (0 0 0) to (10.9686 10.9686 10.9686) with tilt (0 0 0)
  1 by 2 by 2 MPI processor grid
  reading atoms ...
  64 atoms
  read_data CPU = 0.001 seconds

pair_style mtd 1e-4 1                Si 0.001 1.0 20                1                1.0
pair_coeff * * potential_saved Si

fix my_mdi all mdi/qm virial yes

compute myTemp all temp
compute ppa all pe/atom
compute p_static all pressure NULL virial
compute p_kinetic all pressure myTemp ke

thermo 1
thermo_style custom step temp pe evdwl ecoul vol c_p_static c_p_kinetic press spcpu

timestep 0.002
velocity all create 300 2025
fix int all npt temp 300 300 0.1 tri 0 0 1.0

dump traj all custom 1 traj.dump id type x y z ix iy iz c_ppa fx fy fz
dump_modify traj sort id

run 1000
Generated 0 of 0 mixed pair_coeff terms from geometric mixing rule
Neighbor list info ...
  update: every = 1 steps, delay = 0 steps, check = yes
  max neighbors/atom: 2000, page size: 100000
  master list distance cutoff = 8
  ghost atom cutoff = 8
  binsize = 4, bins = 3 3 3
  1 neighbor lists, perpetual/occasional/extra = 1 0 0
  (1) pair mtd, perpetual
      attributes: full, newton on
      pair build: full/bin/atomonly
      stencil: full/bin/3d
      bin: standard
Per MPI rank memory allocation (min/avg/max) = 3.248 | 3.248 | 3.248 Mbytes
   Step          Temp          PotEng         E_vdwl         E_coul         Volume       c_p_static    c_p_kinetic       Press          S/CPU     
         0   300           -346.64191      0              0              1319.6342      5187.7552      1977.3884      7165.1436      0            
         1   295.47737     -346.60486      0              0              1319.6621      5082.3027      1947.5372      7029.8399      1.3370635    
         2   282.23988     -346.49643      0              0              1319.7448      4838.3848      1860.1702      6698.555       0.88297364   
         3   261.30713     -346.32471      0              0              1319.8798      4598.2972      1722.0318      6320.329       1.1870376    
         4   234.41361     -346.10382      0              0              1320.0641      4370.6941      1544.586       5915.28        0.99065846   
         5   203.90617     -345.85297      0              0              1320.2946      4159.3244      1343.3334      5502.6578      6.5549223    
         6   172.50927     -345.59442      0              0              1320.5681      3996.4479      1136.2553      5132.7032      9.3721884    
         7   143.03479     -345.35123      0              0              1320.8817      3903.8299      941.89403      4845.724       6.8363477    
         8   118.06301     -345.14459      0              0              1321.2332      3911.7128      777.24628      4688.9591      9.4638313    
         9   99.632942     -344.99133      0              0              1321.6215      4051.684       655.72256      4707.4066      6.8340607    
        10   88.998003     -344.90161      0              0              1322.0468      4336.1961      585.54156      4921.7376      9.4837788    
        11   86.492782     -344.87808      0              0              1322.5107      4764.235       568.85942      5333.0944      6.8226473    
        12   91.532764     -344.91568      0              0              1323.0166      5322.6917      601.777        5924.4687      9.4462757    
        13   102.74241     -345.00281      0              0              1323.5691      5987.618       675.19222      6662.8103      6.8433457    
        14   118.18177     -345.12317      0              0              1324.1741      6730.4683      776.30017      7506.7685      9.504882     
        15   135.62165     -345.25824      0              0              1324.8384      7521.3395      890.41076      8411.7503      6.8585772    
        16   152.81492     -345.38934      0              0              1325.5692      8328.9779      1002.7384      9331.7163      9.4886076    
        17   167.73368     -345.49985      0              0              1326.374       9124.0519      1099.9643      10224.016      6.8653073    
        18   178.74977     -345.57645      0              0              1327.2599      9895.1567      1171.4232      11066.58       9.4976517    
        19   184.7535      -345.61014      0              0              1328.2338      10619.767      1209.8804      11829.647      7.1098105    
        20   185.20944     -345.59686      0              0              1329.3021      11303.258      1211.8915      12515.15       8.8926918    
        21   180.12196     -341.47877      0              4.0584001      1330.4705      12319.412      1177.5673      13496.979      6.731941     
        22   170.03977     -341.37713      0              4.0584181      1331.7471      13356.971      1110.5882      14467.559      9.2439968    
        23   156.05486     -341.24297      0              4.0577474      1333.1401      14420.274      1018.1829      15438.456      6.71924      
        24   139.55171     -341.08775      0              4.0562978      1334.6578      15550.064      909.47239      16459.536      9.2490342    
        25   122.12737     -340.92465      0              4.0539835      1336.3087      16778.857      794.93295      17573.79       6.7170027    
        26   105.4418      -340.76716      0              4.050716       1338.1025      18133.795      685.40571      18819.201      9.1981971    
        27   91.064216     -340.62798      0              4.0463925      1340.05        19640.79       591.08651      20231.877      6.69867      
        28   80.33456      -340.51778      0              4.0408756      1342.1632      21329.364      520.62063      21849.985      9.2543671    
        29   74.241662     -340.44424      0              4.0339683      1344.4563      23240.635      480.31404      23720.949      6.7586207    
        30   73.336408     -340.41117      0              4.0253844      1346.9455      25401.644      473.5806       25875.224      9.2502687    
        31   77.688727     -340.41857      0              4.0147189      1349.6496      27834.943      500.68118      28335.624      6.7169153    
        32   86.88456      -340.46227      0              4.0014132      1352.5902      30565.471      558.72827      31124.2        9.2657542    
        33   100.0727      -340.53463      0              3.9847195      1355.792       33615.259      642.01746      34257.276      6.7524311    
        34   116.05275     -340.62527      0              3.9636545      1359.2828      37014.012      742.62557      37756.637      9.3094824    
        35   133.39631     -340.72212      0              3.9369417      1363.0939      40787.86       851.221        41639.081      6.7308668    
        36   150.58616     -340.81258      0              3.9029336      1367.2606      44990.859      957.9835       45948.843      9.2996377    
        37   166.16733     -340.8849       0              3.859512       1371.8223      49649.845      1053.5911      50703.436      6.7806687    
        38   178.88439     -340.92913      0              3.8039583      1376.8229      54838.106      1130.1046      55968.211      9.3272168    
        39   187.78822     -340.93822      0              3.7327994      1382.3116      60622.919      1181.6441      61804.563      6.7670411    
        40   192.32421     -340.90863      0              3.6416662      1388.3436      67054.726      1204.9285      68259.655      8.8701263    
        41   192.38481     -336.77222      0              7.5934753      1394.9808      75923.642      1199.5735      77123.216      6.6990133    
        42   188.28413     -336.68195      0              7.4320046      1402.3072      85771.365      1167.8709      86939.236      9.1771933    
        43   180.79402     -336.57714      0              7.2172301      1410.4176      96679.409      1114.9635      97794.373      6.6655458    
        44   170.99347     -336.47255      0              6.9345889      1419.4181      108649.33      1047.8364      109697.17      9.1822768    
        45   160.14725     -336.38495      0              6.5672571      1429.4271      121483.53      974.49983      122458.03      6.7069439    
        46   149.56021     -336.32998      0              6.0977584      1440.5737      134676.12      903.0356       135579.16      9.2317362    
        47   140.42443     -336.31739      0              5.5115908      1452.9932      147323.37      840.62709      148164         6.726432     
        48   133.68664     -336.34401      0              4.8033917      1466.8181      158102.24      792.74959      158894.99      9.2245659    
        49   129.96249     -336.38486      0              3.9855648      1482.1646      165399.01      762.6862       166161.69      6.72918      
        50   129.51006     -336.38531      0              3.0971771      1499.1131      167619.53      751.43841      168370.97      9.712314     
        51   132.26838     -336.25941      0              2.2077557      1517.6882      163868.26      758.04987      164626.31      6.6607229    
        52   137.92826     -335.9021       0              1.4077171      1537.8426      154794.42      780.12764      155574.54      9.4828118    
        53   145.97608     -335.22002      0              0.78031696     1559.4568      143108.33      814.20292      143922.53      6.8757487    
        54   155.68632     -334.1688       0              0.36507897     1582.3617      132776.23      855.79348      133632.03      9.5076206    
        55   166.13827     -332.76963      0              0.14031282     1606.3813      126846.13      899.59147      127745.72      7.151124     
        56   176.34348     -331.08749      0              0.0434281      1631.3697      125700.44      940.22392      126640.66      9.5164533    
        57   185.43726     -329.19001      0              0.010738543    1657.2232      127720.74      973.28554      128694.03      6.8540101    
        58   192.78979     -327.12244      0              0.0021294425   1683.8676      130906.34      995.86481      131902.21      9.4992974    
        59   198.01818     -324.91043      0              0.00033931529  1711.2394      134065.08      1006.5111      135071.59      6.8142853    
        60   200.95116     -322.57003      0              4.2516002e-05  1739.2749      136824.4       1004.9549      137829.36      6.7592949    
        61   201.5742      -316.15807      0              3.9569239      1767.9085      145965.92      991.74365      146957.66      9.5711853    
        62   199.90006     -313.79148      0              3.7587552      1797.1695      156227.66      967.49374      157195.15      5.3879177    
        63   196.16759     -311.49665      0              3.38189        1827.1153      167730.01      933.86821      168663.88      6.6462308    
        64   190.78553     -309.29273      0              2.8072463      1857.8363      177734.88      893.2279       178628.11      5.1673835    
        65   184.25749     -307.12981      0              2.0857974      1889.4173      182102.52      848.24547      182950.77      6.7258835    
        66   177.05841     -304.88717      0              1.3462289      1921.8736      178561.83      801.33854      179363.17      7.127967     
        67   169.54768     -302.43605      0              0.73502784     1955.1124      169141.26      754.30055      169895.56      10.006961    
        68   161.96444     -299.72088      0              0.33191457     1988.9622      158580.27      708.30028      159288.57      7.139274     
        69   154.49448     -296.78004      0              0.1214458      2023.2528      150561.78      664.18202      151225.96      10.022401    
        70   147.32267     -293.69799      0              0.03529028     2057.8798      145896.17      622.6928       146518.86      7.1309511    
        71   140.62295     -290.5482       0              0.0079857292   2092.8215      143489.96      584.45127      144074.41      10.118509    
        72   134.52316     -287.37069      0              0.0013805949   2128.1169      142025.62      549.82673      142575.44      7.1852112    
        73   129.0938      -284.17939      0              0.0001786432   2163.8382      140743.34      518.92533      141262.27      10.131861    
        74   124.35654     -280.97609      0              1.6857437e-05  2200.0708      139365.03      491.65023      139856.68      7.1793797    
        75   120.29719     -277.75873      0              1.1208199e-06  2236.9029      137833.5       467.77029      138301.27      10.140963    
        76   116.88221     -274.52487      0              5.0351545e-08  2274.4202      136138.43      446.9943       136585.43      7.1742323    
        77   114.06506     -271.27289      0              1.4619541e-09  2312.701       134275.09      429.00016      134704.09      10.128194    
        78   111.79012     -268.00232      0              2.6330624e-11  2351.8132      132260.52      413.45179      132673.98      7.179849     
        79   109.99527     -264.71381      0              2.8425451e-13  2391.8116      130114.96      400.01043      130514.97      10.142349    
        80   108.61662     -261.409        0              1.7956143e-15  2432.7365      127856.11      388.35195      128244.46      7.0227556    
        81   107.71801     -254.18938      0              3.9007681      2474.6127      130881.89      378.6216       131260.51      9.984264     
        82   107.27951     -251.07275      0              3.6751414      2517.5923      134603.17      370.64288      134973.81      7.1508406    
        83   107.20974     -248.10331      0              3.2692935      2561.8362      138527.11      364.00485      138891.12      10.002186    
        84   107.40223     -245.26449      0              2.6896427      2607.5         140963.32      358.27233      141321.6       5.3756934    
        85   107.63943     -242.48275      0              2.0031961      2654.6844      139973.51      352.68158      140326.19      9.4883587    
        86   107.70002     -239.64199      0              1.3276153      2703.3728      135020.93      346.52466      135367.46      6.8673635    
        87   107.51328     -236.64014      0              0.77618553     2753.4093      127599.21      339.63749      127938.85      9.492888     
        88   107.20209     -233.44297      0              0.4010719      2804.5425      120091.18      332.48         120423.66      6.865866     
        89   106.97448     -230.08675      0              0.18516242     2856.5075      114073.03      325.73851      114398.77      9.510245     
        90   106.9916      -226.63772      0              0.077537941    2909.0867      109828.35      319.90227      110148.25      6.7182878    
        91   107.33541     -223.15485      0              0.029903319    2962.1281      106891.59      315.18351      107206.77      9.5057693    
        92   108.05426     -219.67604      0              0.010760451    3015.535       104697.93      311.67487      105009.6       6.8587372    
        93   109.19796     -216.22196      0              0.0036547861   3069.248       102879.15      309.46165      103188.61      9.6196536    
        94   110.82166     -212.80229      0              0.001181065    3123.2323      101239.02      308.63463      101547.65      6.89033      
        95   113.00816     -209.4213       0              0.0003652028   3177.4702      99687.088      309.35177      99996.44       9.6043023    
        96   115.88303     -206.0804       0              0.00010855657  3231.9572      98203.772      311.87354      98515.645      6.7654029    
        97   119.61291     -202.78009      0              3.110395e-05   3286.6998      96760.765      316.54999      97077.315      9.6457501    
        98   124.41612     -199.52138      0              8.5902359e-06  3341.7137      95302.588      323.84091      95626.429      6.977723     
        99   130.55804     -196.30691      0              2.2842474e-06  3397.0196      93798.241      334.295        94132.535      9.6319526    
       100   138.34002     -193.1403       0              5.8333536e-07  3452.6405      92239.004      348.51442      92587.518      6.748348     
       101   149.30519     -186.27527      0              3.7507165      3508.5998      92304.601      370.13945      92674.741      9.3830331    
       102   164.13192     -183.33233      0              3.6352625      3565.0093      92367.808      400.45772      92768.266      6.7833838    
       103   182.23197     -180.517        0              3.4536404      3621.9811      91978.09       437.62557      92415.716      9.4130226    
       104   204.13013     -177.82927      0              3.2146789      3679.6009      91058.538      482.53707      91541.075      6.8604884    
       105   230.31299     -175.26834      0              2.9306933      3737.9219      89534.517      535.93547      90070.453      9.4393569    
       106   261.21808     -172.83259      0              2.6171764      3796.9591      87381.655      598.40002      87980.055      7.088241     
       107   297.25064     -170.51995      0              2.2914353      3856.6862      84636.802      670.39809      85307.2        9.4368265    
       108   338.77406     -168.32903      0              1.9703435      3917.038       81415.238      752.27504      82167.513      6.8020122    
       109   386.11625     -166.25894      0              1.6678492      3977.9162      77880.145      844.28045      78724.426      9.3959089    
       110   439.62025     -164.31135      0              1.3939714      4039.2015      74173.73       946.68709      75120.417      6.8226505    
       111   499.68887     -162.4908       0              1.1542823      4100.7623      70433.293      1059.8865      71493.18       9.3951599    
       112   566.78748     -160.80359      0              0.95028559     4162.4658      66808.319      1184.3876      67992.706      6.8230564    
       113   641.37795     -159.2556       0              0.78014829     4224.1888      63429.207      1320.6721      64749.879      9.4038163    
       114   723.88191     -157.85183      0              0.64003869     4285.828       60312.061      1469.12        61781.182      6.8184471    
       115   814.6931      -156.59769      0              0.52555826     4347.3015      57464.942      1630.0411      59094.983      9.428159     
       116   914.13617     -155.49794      0              0.4323566      4408.5496      54869.761      1803.5968      56673.358      6.8052048    
       117   1022.3927     -154.55645      0              0.35654129     4469.5324      52518.365      1989.665       54508.03       9.3688576    
       118   1139.4565     -153.77586      0              0.294876       4530.2294      50371.492      2187.7709      52559.263      6.8375773    
       119   1265.1171     -153.15857      0              0.24475486     4590.6353      48402.771      2397.0782      50799.849      9.4089805    
       120   1398.9125     -152.70647      0              0.20394453     4650.7573      46590.613      2616.3218      49206.934      6.7237062    
       121   1548.1211     -149.83948      0              2.7517183      4710.6124      44086.652      2858.5898      46945.242      9.3179416    
       122   1712.8308     -149.8379       0              2.6155648      4770.1478      42712.803      3123.2513      45836.054      6.7717417    
       123   1883.6942     -150.0242       0              2.4698488      4829.4184      41378.058      3392.6562      44770.714      9.3275049    
       124   2058.4864     -150.391        0              2.3161806      4888.476       40081.906      3662.6786      43744.585      5.7867274    
       125   2234.7753     -150.92763      0              2.1563103      4947.369       38817.448      3929.0165      42746.464      9.3946416    
       126   2410.421      -151.62231      0              1.9920379      5006.1411      37555.277      4188.0716      41743.349      6.8238936    
       127   2584.0776     -152.46433      0              1.8252798      5064.8278      36278.814      4437.7736      40716.587      9.4149536    
       128   2755.463      -153.44457      0              1.6581871      5123.4551      34996.83       4677.9538      39674.784      6.8120454    
       129   2925.1841     -154.55581      0              1.493048       5182.0404      33691.263      4909.9458      38601.209      9.4185462    
       130   3093.8227     -155.79045      0              1.3320297      5240.5908      32343.833      5134.9884      37478.821      6.858239     
       131   3260.4757     -157.13282      0              1.1771281      5299.1021      30944.373      5351.8381      36296.212      9.4082837    
       132   3421.3996     -158.55078      0              1.0301514      5357.557       29486.592      5554.7086      35041.301      6.8155134    
       133   3569.8316     -159.99281      0              0.89249409     5415.9245      27979.873      5733.2306      33713.104      6.8051999    
       134   3697.1547     -161.39579      0              0.76555403     5474.1601      26403.538      5874.5474      32278.086      9.4750864    
       135   3794.4489     -162.69302      0              0.65084786     5532.2014      24732.185      5965.8869      30698.072      6.8727901    
       136   3854.3142     -163.82513      0              0.5491654      5589.964       22920.008      5997.3914      28917.4        9.467591     
       137   3873.0014     -164.75444      0              0.46020043     5647.3338      21027.958      5965.2478      26993.206      6.8311353    
       138   3852.1256     -165.4751       0              0.3832106      5704.1754      19163.141      5873.9717      25037.113      9.8291368    
       139   3798.9788     -166.02467      0              0.31773903     5760.3484      17354.47       5736.4393      23090.91       7.0300467    
       140   3724.7372     -166.47221      0              0.26332059     5815.7129      15613.949      5570.7922      21184.741      9.2218027    
       141   3643.7435     -166.31448      0              0.80374447     5870.1345      13763.676      5399.1332      19162.809      6.822417     
       142   3566.4526     -166.82529      0              0.73858007     5923.4608      12219.027      5237.032       17456.059      9.3306104    
       143   3498.4489     -167.44568      0              0.67998862     5975.5871      10824.181      5092.3617      15916.543      6.7654314    
       144   3443.0902     -168.20099      0              0.62659811     6026.4329      9584.4789      4969.4962      14553.975      9.3349881    
       145   3399.3745     -169.07786      0              0.5774125      6075.9427      8537.5435      4866.4205      13403.964      6.9504173    
       146   3365.2053     -170.05537      0              0.53323444     6124.0915      7723.7927      4779.629       12503.422      9.325971     
       147   3341.4371     -171.13636      0              0.49552326     6170.8901      7124.4536      4709.8791      11834.333      6.7669646    
       148   3332.0228     -172.35552      0              0.46449085     6216.3814      6702.2668      4662.2397      11364.507      9.6590336    
       149   3339.069      -173.737        0              0.4393157      6260.6346      6465.4588      4639.0742      11104.533      6.7354668    
       150   3356.2856     -175.2336       0              0.41917279     6303.7461      6392.5933      4631.1034      11023.697      9.3210876    
       151   3367.596      -176.70986      0              0.40354064     6345.8346      6387.4472      4615.8908      11003.338      6.723599     
       152   3353.1783     -177.99071      0              0.39170181     6387.0194      6404.3591      4566.492       10970.851      9.2913409    
       153   3298.4601     -178.93589      0              0.3825041      6427.4085      6372.2989      4463.7476      10836.046      6.9271605    
       154   3200.8568     -179.50027      0              0.37471733     6467.0826      6303.156       4305.0889      10608.245      9.3048953    
       155   3071.0838     -179.74929      0              0.36756417     6506.0981      6228.1774      4105.7768      10333.954      6.9664844    
       156   2928.3953     -179.82779      0              0.36077361     6544.4967      6179.9624      3892.0439      10072.006      9.6490779    
       157   2792.3097     -179.89145      0              0.3542017      6582.3167      6196.4029      3689.8533      9886.2562      5.3957025    
       158   2675.5874     -180.04818      0              0.34783612     6619.6057      6317.5582      3515.696       9833.2541      9.2947652    
       159   2581.0827     -180.32737      0              0.34191182     6656.4312      6556.7558      3372.7547      9929.5105      6.78275      
       160   2504.0435     -180.69295      0              0.3367164      6692.884       6946.1812      3254.2646      10200.446      9.1049633    
       161   2440.0234     -180.76602      0              0.67236797     6729.0824      7451.391       3154.0054      10605.396      6.8886665    
       162   2390.679      -181.25101      0              0.66323917     6765.1644      8109.7048      3073.7405      11183.445      9.2468952    
       163   2362.0492     -181.86692      0              0.65324848     6801.2951      8895.4447      3020.7975      11916.242      6.7628325    
       164   2357.2443     -182.64962      0              0.64244492     6837.663       9797.6449      2998.6183      12796.263      9.2674337    
       165   2371.8483     -183.57146      0              0.63100923     6874.4786      10746.733      3001.0376      13747.77       6.7076148    
       166   2396.2708     -184.55794      0              0.61927176     6911.959       11677.678      3015.4978      14693.176      9.2522752    
       167   2421.3755     -185.53618      0              0.60741658     6950.3125      12521.508      3030.2753      15551.783      6.7142886    
       168   2442.4721     -186.46911      0              0.59540339     6989.7222      13240.926      3039.4429      16280.369      6.7139477    
       169   2459.6606     -187.35887      0              0.58323754     7030.3384      13828.238      3043.1492      16871.387      9.2685217    
       170   2475.9306     -188.23189      0              0.57090393     7072.2776      14272.154      3045.1133      17317.268      6.7494694    
       171   2494.7056     -189.12036      0              0.55831622     7115.6223      14568.539      3049.5145      17618.053      9.287532     
       172   2517.7953     -190.04433      0              0.54547268     7160.4214      14720.513      3058.4834      17778.996      6.9291024    
       173   2544.5823     -191.00448      0              0.53232785     7206.6919      14726.552      3071.1769      17797.729      9.599372     
       174   2572.396      -191.98449      0              0.51869753     7254.419       14587.016      3084.3203      17671.337      6.9050092    
       175   2597.4739     -192.95845      0              0.50433111     7303.5555      14297.954      3093.4361      17391.39       9.625454     
       176   2615.9069     -193.89764      0              0.48908005     7354.0196      13865.778      3094.0105      16959.788      6.8904164    
       177   2624.486      -194.77771      0              0.47303324     7405.6963      13279.789      3082.4969      16362.286      9.577447     
       178   2621.3204     -195.5841       0              0.45645388     7458.4331      12537.074      3057.0095      15594.084      6.9172628    
       179   2606.0167     -196.3135       0              0.43961569     7512.0397      11647.5        3017.4744      14664.975      9.5730294    
       180   2579.6646     -196.97408      0              0.42270501     7566.2901      10651.15       2965.5452      13616.695      6.5119182    
       181   2544.848      -197.32684      0              0.6614539      7620.9332      9550.1796      2904.5442      12454.724      9.4691307    
       182   2504.4845     -197.9101       0              0.63886285     7675.6948      8428.2993      2838.082       11266.381      6.831679     
       183   2461.0653     -198.48449      0              0.61406534     7730.3001      7314.7119      2769.1792      10083.891      9.4855042    
       184   2416.6249     -199.06355      0              0.58760107     7784.4819      6245.3294      2700.249       8945.5785      6.8221518    
       185   2372.5565     -199.65562      0              0.56106925     7837.9916      5238.7086      2632.9102      7871.6188      9.1772422    
       186   2329.7627     -200.26535      0              0.53561663     7890.6039      4299.9277      2568.1816      6868.1094      6.7069966    
       187   2288.3979     -200.89157      0              0.51181334     7942.1188      3427.1563      2506.2215      5933.3778      9.1829141    
       188   2247.5427     -201.52398      0              0.49039748     7992.3607      2629.7         2446.004       5075.7041      6.7983576    
       189   2205.7504     -202.14702      0              0.47211764     8041.1803      1903.415       2385.9473      4289.3623      9.0984972    
       190   2162.302      -202.75061      0              0.45736973     8088.4524      1260.6735      2325.2798      3585.9533      6.6621017    
       191   2118.4565     -203.34091      0              0.44595123     8134.0789      708.60208      2265.3508      2973.9529      9.4157034    
       192   2078.019      -203.94678      0              0.43719245     8177.9903      280.59573      2210.1777      2490.7735      6.6350586    
       193   2046.5149     -204.61258      0              0.43037485     8220.1559      15.59058       2165.5048      2181.0953      9.0658176    
       194   2029.1532     -205.38379      0              0.42498372     8260.596      -74.727495      2136.6223      2061.8948      6.6359208    
       195   2028.2208     -206.28375      0              0.42062782     8299.3853      5.5504606      2125.659       2131.2095      9.1612169    
       196   2041.1224     -207.29602      0              0.41698983     8336.6508      241.16463      2129.6181      2370.7827      6.8099643    
       197   2060.2227     -208.36112      0              0.41376518     8372.5651      583.2125       2140.326       2723.5385      9.1308189    
       198   2074.5619     -209.38884      0              0.41050886     8407.3274      977.72342      2146.3114      3124.0348      6.6452305    
       199   2072.5227     -210.27931      0              0.40690607     8441.1424      1350.3867      2135.612       3485.9987      9.1642083    
       200   2044.6741     -210.94582      0              0.40297936     8474.194       1651.465       2098.6981      3750.1632      6.7166875    
       201   1986.7867     -211.12489      0              0.61467754     8506.6269      1851.0132      2031.5062      3882.5194      9.3474147    
       202   1903.074      -211.26557      0              0.61248068     8538.5379      2018.2952      1938.6368      3956.9319      5.2079285    
       203   1806.1913     -211.24914      0              0.60823249     8569.9999      2185.3789      1833.1889      4018.5677      8.995059     
       204   1710.9287     -211.19698      0              0.60123528     8601.078       2378.0105      1730.2279      4108.2383      6.6296345    
       205   1626.0978     -211.18462      0              0.59236005     8631.8427      2600.6315      1638.5792      4239.2107      9.3312648    
       206   1551.2455     -211.20925      0              0.58255863     8662.3741      2849.9686      1557.6428      4407.6114      6.7647269    
       207   1482.599      -211.23535      0              0.57269773     8692.761       3141.1919      1483.5092      4624.7011      9.303956     
       208   1424.5207     -211.29701      0              0.56451622     8723.104       3515.6121      1420.437       4936.0491      6.7782824    
       209   1393.8997     -211.54421      0              0.55984071     8753.5307      4017.6912      1385.0727      5402.7639      9.336165     
       210   1408.4904     -212.14667      0              0.55911057     8784.2158      4665.687       1394.6819      6060.3689      6.7623122    
       211   1468.1715     -213.12501      0              0.56152686     8815.3918      5444.1311      1448.6366      6892.7677      9.0842246    
       212   1549.8227     -214.2956       0              0.56544098     8847.343       6265.5371      1523.6788      7789.2159      6.7598451    
       213   1622.0797     -215.39615      0              0.56887438     8880.3667      7034.2125      1588.7866      8622.9991      8.9917165    
       214   1663.7914     -216.24579      0              0.57051008     8914.73        7669.3907      1623.3604      9292.7511      6.7667458    
       215   1669.9603     -216.79686      0              0.57006802     8950.6363      8099.4062      1622.8431      9722.2493      9.2749337    
       216   1646.0863     -217.0882       0              0.5674975      8988.2003      8301.183       1592.9573      9894.1403      6.7939465    
       217   1600.8727     -217.18463      0              0.56286301     9027.4445      8293.2082      1542.4683      9835.6765      9.2708424    
       218   1542.833      -217.15079      0              0.55648584     9068.3106      8118.5359      1479.847       9598.383       6.7513935    
       219   1480.0988     -217.05119      0              0.54878204     9110.6788      7829.5305      1413.0719      9242.6023      6.713154     
       220   1420.4606     -216.95136      0              0.54009454     9154.3907      7470.6273      1349.6589      8820.2863      9.0277487    
       221   1370.6436     -216.68117      0              0.75904442     9199.268       7061.1456      1295.9718      8357.1174      6.6547171    
       222   1334.4537     -216.73737      0              0.74691133     9245.1223      6673.1469      1255.4955      7928.6423      9.1293944    
       223   1312.2311     -216.89997      0              0.73490147     9291.7827      6297.4653      1228.388       7525.8532      6.5582419    
       224   1301.827      -217.15698      0              0.72327318     9339.0919      5932.2628      1212.4753      7144.7381      9.1438116    
       225   1299.9197     -217.48586      0              0.7119137      9386.9047      5569.0924      1204.5322      6773.6246      6.6392003    
       226   1303.4901     -217.86552      0              0.70072929     9435.0828      5204.4965      1201.673       6406.1695      9.0527317    
       227   1310.7109     -218.2841       0              0.68984103     9483.4925      4844.1217      1202.1617      6046.2834      6.5124573    
       228   1321.0056     -218.73928      0              0.67959952     9532.0059      4496.6183      1205.4373      5702.0557      8.8206473    
       229   1334.485      -219.23427      0              0.67036429     9580.5041      4168.109       1211.5731      5379.6821      6.4678133    
       230   1351.1329     -219.77075      0              0.66219989     9628.8796      3858.9594      1220.5247      5079.4841      9.0372617    
       231   1370.0827     -220.34312      0              0.65482056     9677.0365      3569.8738      1231.4838      4801.3575      6.6067283    
       232   1389.4247     -220.93586      0              0.6477862      9724.8897      3303.7425      1242.7238      4546.4664      8.8303612    
       233   1406.8971     -221.52918      0              0.64076779     9772.3658      3066.501       1252.2381      4318.7391      6.5042138    
       234   1421.1247     -222.10981      0              0.63371675     9819.4045      2862.0817      1258.8423      4120.9241      8.8086769    
       235   1432.4926     -222.67925      0              0.62678326     9865.9591      2686.9503      1262.9244      3949.8747      6.6448311    
       236   1442.7693     -223.25174      0              0.62011798     9911.9954      2539.2871      1266.0769      3805.364       8.8020889    
       237   1453.3506     -223.83958      0              0.61372777     9957.4912      2411.9013      1269.5352      3681.4365      6.6059115    
       238   1463.2915     -224.43546      0              0.60752641     10002.433      2297.1303      1272.4756      3569.606       8.7456096    
       239   1469.0473     -225.0083       0              0.60145508     10046.815      2190.3612      1271.8376      3462.1989      6.5935389    
       240   1466.6856     -225.52148      0              0.5954988      10090.629      2089.1142      1264.2794      3353.3936      8.8045279    
       241   1454.7634     -225.71093      0              0.83694862     10133.87       1978.059       1248.6517      3226.7107      6.561407     
       242   1435.401      -226.08385      0              0.83118477     10176.524      1881.5771      1226.8687      3108.4458      8.923884     
       243   1413.2212     -226.42819      0              0.82453104     10218.578      1807.6498      1202.94        3010.5898      6.5385615    
       244   1392.6098     -226.77983      0              0.8171573      10260.032      1756.2142      1180.6061      2936.8203      8.9374942    
       245   1375.4615     -227.15377      0              0.80930498     10300.894      1717.4317      1161.4428      2878.8744      6.52993      
       246   1360.5533     -227.54055      0              0.80141318     10341.18       1679.6483      1144.3787      2824.027       8.9191776    
       247   1344.3936     -227.9109       0              0.79374613     10380.907      1617.2734      1126.4591      2743.7325      6.5419819    
       248   1323.1802     -228.23179      0              0.78639953     10420.077      1520.5461      1104.5169      2625.063       8.9446642    
       249   1295.1085     -228.48568      0              0.77934582     10458.675      1401.2032      1077.0945      2478.2977      6.5697231    
       250   1261.5805     -228.68154      0              0.77280366     10496.671      1290.5924      1045.4124      2336.0048      8.9253369    
       251   1226.7014     -228.85112      0              0.76742799     10534.04       1226.4931      1012.9038      2239.3969      6.5384549    
       252   1195.6335     -229.03642      0              0.76389952     10570.776      1232.7716      983.8197       2216.5912      6.5372994    
       253   1172.6763     -229.2739       0              0.76259633     10606.91       1316.3722      961.64228      2278.0144      8.8807274    
       254   1159.7503     -229.58185      0              0.76355182     10642.513      1479.0648      947.86093      2426.9257      6.5602121    
       255   1155.4773     -229.95159      0              0.76646231     10677.695      1714.7356      941.25689      2655.9925      8.9161574    
       256   1155.1526     -230.346        0              0.77073338     10712.605      2000.2526      937.92596      2938.1785      6.542333     
       257   1152.1947     -230.70988      0              0.77556301     10747.412      2290.4248      932.49454      3222.9193      8.946253     
       258   1140.792      -230.99297      0              0.78022049     10782.279      2544.1141      920.28044      3464.3946      6.5699137    
       259   1118.2725     -231.1702       0              0.78423595     10817.345      2729.048       899.18954      3628.2376      8.9108413    
       260   1085.8625     -231.24924      0              0.78722709     10852.703      2836.0444      870.28444      3706.3288      6.4191753    
       261   1047.8616     -230.96844      0              1.0849196      10888.4        2850.2944      837.07451      3687.3689      8.7615174    
       262   1010.2401     -230.96776      0              1.0859242      10924.432      2855.0361      804.35917      3659.3953      6.4993668    
       263   979.09699     -231.00428      0              1.0842624      10960.788      2849.6642      776.9771       3626.6413      8.6043059    
       264   958.8269      -231.11799      0              1.080195       10997.457      2849.0969      758.35441      3607.4514      6.4608932    
       265   951.08558     -231.32689      0              1.0741847      11034.434      2860.5997      749.71087      3610.3106      6.4532551    
       266   954.56783     -231.62454      0              1.0666545      11071.728      2879.2049      749.9213       3629.1262      8.8105824    
       267   965.76788     -231.98534      0              1.0578471      11109.352      2897.625       756.1506       3653.7756      6.4706798    
       268   980.25362     -232.37532      0              1.0478517      11147.327      2906.4466      764.87768      3671.3242      8.775687     
       269   993.71548     -232.76012      0              1.0367207      11185.667      2893.3758      772.72413      3666.0999      6.4877598    
       270   1002.5908     -233.11055      0              1.024577       11224.371      2846.5248      776.93733      3623.4621      8.8213207    
       271   1004.3709     -233.4051       0              1.0116602      11263.422      2760.1751      775.61833      3535.7934      6.4704703    
       272   997.804       -233.63165      0              0.99831389     11302.775      2632.421       767.86422      3400.2852      8.7883972    
       273   983.22962     -233.79053      0              0.98492357     11342.361      2468.8402      754.00769      3222.8479      6.484024     
       274   962.86682     -233.89829      0              0.97185594     11382.088      2279.6215      735.8149       3015.4364      8.7973656    
       275   940.52905     -233.98528      0              0.9594055      11421.849      2069.9083      716.24248      2786.1508      6.4800879    
       276   920.61993     -234.08855      0              0.94776683     11461.529      1850.2171      698.65391      2548.871       8.720065     
       277   906.59857     -234.23853      0              0.9370668      11501.009      1630.4068      685.65141      2316.0582      6.4382877    
       278   899.70699     -234.44756      0              0.92733467     11540.176      1415.3529      678.12999      2093.4829      8.7259211    
       279   898.96629     -234.70919      0              0.9183863      11578.926      1207.2039      675.30416      1882.508       6.4760653    
       280   902.36688     -235.00789      0              0.9100519      11617.163      1009.1511      675.62755      1684.7786      8.4681931    
       281   908.18268     -235.03877      0              1.1940786      11654.803      791.3562       677.78598      1469.1422      6.373693     
       282   915.41307     -235.37678      0              1.1873827      11691.75       622.45915      681.02313      1303.4823      6.3299538    
       283   923.58311     -235.72773      0              1.1798894      11727.944      480.30939      684.98077      1165.2902      8.6076863    
       284   931.72303     -236.08409      0              1.1712804      11763.34       366.20499      688.93854      1055.1435      6.375718     
       285   937.53933     -236.42703      0              1.1617761      11797.91       272.23875      691.20791      963.44666      8.6027477    
       286   937.15163     -236.72333      0              1.152005       11831.64       175.8879       688.95237      864.84027      6.3792153    
       287   925.84295     -236.93117      0              1.1421363      11864.511      50.677673      678.75303      729.4307       8.5959013    
       288   899.9961      -237.01549      0              1.1319444      11896.479     -115.84687      658.03117      542.1843       6.3825672    
       289   860.00362     -236.97296      0              1.121399       11927.472     -313.14601      627.15681      314.0108       8.6358574    
       290   812.65263     -236.85458      0              1.1111517      11957.392     -503.60735      591.14327      87.535916      6.4022749    
       291   770.16791     -236.7612       0              1.1024159      11986.145     -641.73294      558.89493     -82.838015      8.6056544    
       292   744.40592     -236.79583      0              1.0962928      12013.674     -691.04569      538.96212     -152.08357      6.3771688    
       293   739.61258     -236.99924      0              1.0932887      12039.988     -640.2254       534.32133     -105.90406      8.6073819    
       294   750.25633     -237.32843      0              1.0932424      12065.168     -504.37275      540.87959      36.506848      6.3772323    
       295   765.76356     -237.69642      0              1.0954542      12089.352     -314.0482       550.95478      236.90658      8.6038787    
       296   776.9287      -238.02705      0              1.0989438      12112.713     -102.30009      557.90983      455.60974      6.258724     
       297   778.80661     -238.27912      0              1.10272        12135.429      100.49848      558.2115       658.70998      8.5939396    
       298   770.21073     -238.44104      0              1.1060171      12157.66       273.5753       551.04091      824.61622      6.3837346    
       299   752.6514      -238.52255      0              1.108503       12179.54       409.74004      537.51092      947.25096      8.5709637    
       300   729.9024      -238.55253      0              1.110284       12201.166      518.47811      520.34064      1038.8187      4.9672034    
       301   707.32449     -238.25796      0              1.4278496      12222.615      586.89863      503.36017      1090.2588      8.3609672    
       302   689.97531     -238.3149       0              1.4281716      12243.934      692.11686      490.15886      1182.2757      6.3133379    
       303   680.86048     -238.43392      0              1.4283559      12265.195      812.81942      482.84525      1295.6647      6.2909551    
       304   679.99987     -238.61722      0              1.4286181      12286.481      949.8626       481.39947      1431.2621      8.5186522    
       305   684.77297     -238.8446       0              1.4290393      12307.888      1096.3975      483.93536      1580.3328      6.3028149    
       306   691.42059     -239.08554      0              1.4294415      12329.519      1236.39        487.77605      1724.1661      8.4859513    
       307   696.74912     -239.31379      0              1.429371       12351.467      1351.0271      490.66171      1841.6888      6.3233175    
       308   699.10038     -239.51568      0              1.428291       12373.809      1429.2716      491.42859      1920.7002      8.4855045    
       309   698.28755     -239.68965      0              1.4258269      12396.591      1467.2724      489.95513      1957.2275      6.3230054    
       310   695.00786     -239.84126      0              1.4219197      12419.831      1468.8242      486.74144      1955.5657      6.2906603    
       311   690.32541     -239.97923      0              1.4168091      12443.52       1437.4205      482.54177      1919.9623      8.4661943    
       312   685.40771     -240.11324      0              1.4109166      12467.626      1378.7614      478.17791      1856.9393      6.2925345    
       313   681.38681     -240.2531       0              1.4046862      12492.101      1298.0562      474.44135      1772.4975      6.2902348    
       314   679.19093     -240.40729      0              1.3984677      12516.882      1200.002       471.97609      1671.9781      8.3697339    
       315   679.36029     -240.58125      0              1.3924702      12541.899      1087.6905      471.15211      1558.8426      6.267614     
       316   681.91841     -240.77634      0              1.3867642      12567.073      964.11515      471.97886      1436.094       8.4086111    
       317   686.35423     -240.98931      0              1.3812947      12592.322      832.66218      474.09652      1306.7587      6.2864236    
       318   691.68333     -241.21289      0              1.375883       12617.561      693.56761      476.82188      1170.3895      8.4338528    
       319   696.589       -241.43667      0              1.3702497      12642.702      546.75459      479.24874      1026.0033      6.2717689    
       320   699.64143     -241.64882      0              1.3640891      12667.655      392.177        480.40066      872.57766      8.1693571    
       321   699.56675     -241.51977      0              1.6756034      12692.323      191.45609      479.41579      670.87188      6.2276753    
       322   695.36618     -241.67732      0              1.6677085      12716.58       16.595385      475.62812      492.2235       8.2715698    
       323   686.56772     -241.79824      0              1.6587453      12740.319     -170.9387       468.735        297.7963       6.1689401    
       324   673.36848     -241.88268      0              1.6487224      12763.422     -369.63131      458.89141      89.260107      8.3073114    
       325   656.61717     -241.93656      0              1.6375928      12785.768     -574.42043      446.69357     -127.72686      6.1862682    
       326   637.70439     -241.96975      0              1.6253544      12807.229     -783.08705      433.10032     -349.98673      8.2569965    
       327   618.57437     -241.99716      0              1.6124141      12827.679     -978.25594      419.43833     -558.81761      6.2155253    
       328   601.62189     -242.03795      0              1.5998406      12847.004     -1138.0585      407.32968     -730.72881      8.2816358    
       329   589.22442     -242.11171      0              1.5892018      12865.119     -1246.1285      398.37422     -847.75428      6.2023183    
       330   583.14209     -242.23368      0              1.5819982      12881.982     -1294.3387      393.74585     -900.59282      6.1737291    
       331   583.99738     -242.41017      0              1.5791675      12897.598     -1282.4345      393.84591     -888.58855      8.2528013    
       332   590.93325     -242.6356       0              1.5809255      12912.021     -1214.6933      398.07829     -816.61501      6.1775852    
       333   601.51598     -242.89125      0              1.5867909      12925.343     -1102.0472      404.78961     -697.25755      8.2712932    
       334   612.03778     -243.14715      0              1.5956178      12937.693     -961.66868      411.47712     -550.19157      6.2081503    
       335   618.38456     -243.36882      0              1.6057915      12949.211     -815.28277      415.3743      -399.90847      8.28882      
       336   617.38212     -243.52845      0              1.6157732      12960.038     -683.41838      414.35451     -269.06387      6.1974719    
       337   608.10535     -243.6164       0              1.6246254      12970.295     -579.57226      407.80567     -171.76659      8.033066     
       338   592.35999     -243.646        0              1.6320758      12980.075     -504.01179      396.94726     -107.06453      6.191421     
       339   573.90627     -243.64766      0              1.6382311      12989.442     -445.3182       384.30387     -61.014336      6.1743753    
       340   556.85487     -243.65551      0              1.6432838      12998.447     -389.10704      372.62744     -16.479599      7.6972967    
       341   544.15733     -243.37592      0              1.9662231      13007.136     -354.33128      363.88746      9.5561865      6.0930029    
       342   536.82466     -243.45571      0              1.9697649      13015.54      -265.52783      358.7522       93.224365      8.07117      
       343   534.16118     -243.57137      0              1.972452       13023.731     -159.88829      356.74771      196.85941      6.0937452    
       344   534.51543     -243.71         0              1.9743065      13031.796     -48.846471      356.76336      307.91689      8.0417701    
       345   536.20786     -243.85824      0              1.9753284      13039.823      56.114046      357.67266      413.78671      6.073551     
       346   538.0611      -244.00675      0              1.9755204      13047.894      146.01124      358.68685      504.69809      8.0818618    
       347   539.44471     -244.1506       0              1.9749472      13056.077      217.04345      359.38383      576.42729      6.0874455    
       348   540.09266     -244.28755      0              1.9737764      13064.423      269.50032      359.58565      629.08597      8.0703909    
       349   539.99921     -244.41735      0              1.9722666      13072.968      305.79892      359.28842      665.08734      6.0572722    
       350   539.44998     -244.54219      0              1.9706543      13081.735      329.60835      358.68244      688.29079      8.081768     
       351   539.05741     -244.66702      0              1.9691231      13090.736      346.44646      358.17497      704.62143      6.0879686    
       352   539.68069     -244.79915      0              1.9677588      13099.978      358.47277      358.33612      716.80889      8.0518831    
       353   542.23852     -244.94662      0              1.9665249      13109.465      367.29088      359.77393      727.06481      6.0671949    
       354   547.47189     -245.11626      0              1.965252       13119.198      374.13704      362.97676      737.11381      8.0735014    
       355   555.68439     -245.31162      0              1.963652       13129.18       378.07381      368.14159      746.2154       6.0925803    
       356   566.51583     -245.53077      0              1.9613515      13139.412      375.47619      375.02516      750.50135      8.0698243    
       357   578.82619     -245.76529      0              1.9579323      13149.891      360.03027      382.86908      742.89934      6.0950277    
       358   590.75076     -246.0004       0              1.952968       13160.608      323.62115      390.43849      714.05964      8.0830483    
       359   599.9508      -246.21696      0              1.946066       13171.534      258.66529      396.19005      654.85534      6.0869167    
       360   604.03855     -246.3946       0              1.9369424      13182.621      161.63419      398.55401      560.1882       7.8230642    
       361   601.05979     -246.16276      0              2.2786725      13193.793     -1.2109435      396.25275      395.04181      6.017337     
       362   589.87605     -246.21668      0              2.2649148      13204.925     -170.2662       388.55197      218.28578      5.988558     
       363   570.4536      -246.2009       0              2.249634       13215.883     -363.59582      375.44682      11.851004      6.0238254    
       364   543.89857     -246.12237      0              2.2341083      13226.516     -569.02467      357.68173     -211.34294      7.9140541    
       365   512.31618     -245.99636      0              2.2197357      13236.663     -770.74699      336.65405     -434.09295      6.0010321    
       366   478.55869     -245.84491      0              2.2077061      13246.169     -955.31965      314.2456      -641.07404      7.907003     
       367   445.96722     -245.69456      0              2.1987799      13254.893     -1107.087       292.65166     -814.43536      6.0044663    
       368   418.07839     -245.57455      0              2.1932235      13262.726     -1212.118       274.18849     -937.92952      5.9898409    
       369   398.09102     -245.51249      0              2.1908463      13269.598     -1261.0675      260.94496     -1000.1226      5.9880305    
       370   388.04671     -245.52729      0              2.1911092      13275.49      -1251.4041      254.2481      -997.15602      7.9707557    
       371   387.97972     -245.62173      0              2.1932769      13280.435     -1190.5206      254.10956     -936.41099      6.003254     
       372   395.5751      -245.77874      0              2.196585       13284.507     -1093.1509      259.00478     -834.14615      7.9388793    
       373   406.76619     -245.96581      0              2.2003566      13287.813     -977.90096      266.26594     -711.63502      6.0194328    
       374   417.09352     -246.14637      0              2.2040509      13290.47      -861.74296      272.97154     -588.77142      7.956717     
       375   423.07714     -246.2912       0              2.2072756      13292.594     -759.00595      276.84336     -482.16259      6.0155779    
       376   422.95582     -246.38501      0              2.2098064      13294.283     -676.37697      276.72881     -399.64816      7.9300589    
       377   416.71021     -246.42648      0              2.211617       13295.615     -613.92642      272.61517     -341.31126      6.0277955    
       378   405.69847     -246.42573      0              2.2128791      13296.645     -566.64044      265.39064     -301.2498       7.9423147    
       379   392.21159     -246.4008       0              2.2139123      13297.413     -526.8762       256.55327     -270.32293      6.0208867    
       380   378.98689     -246.3741       0              2.2151049      13297.952     -486.78236      247.89269     -238.88967      7.7200548    
       381   368.59368     -246.02453      0              2.5596667      13298.292     -466.7628       241.08839     -225.67442      5.9352526    
       382   362.74771     -246.05264      0              2.562462       13298.45      -410.26514      237.26186     -173.00328      7.8404362    
       383   362.00802     -246.12137      0              2.5664038      13298.472     -343.56338      236.77766     -106.78572      5.9368791    
       384   365.77445     -246.22667      0              2.5714733      13298.414     -270.05215      239.24222     -30.809935      7.8467043    
       385   372.77876     -246.35881      0              2.577434       13298.335     -194.74031      243.82496      49.084651      5.932142     
       386   381.67891     -246.50731      0              2.5838469      13298.301     -122.54786      249.64697      127.09911      7.7971449    
       387   391.42072     -246.66396      0              2.5901468      13298.369     -56.701892      256.01755      199.31565      5.9265555    
       388   401.26081     -246.82302      0              2.5957595      13298.592      0.56377279     262.44926      263.01303      7.8478293    
       389   410.58282     -246.97959      0              2.6001824      13299.017      47.487672      268.53785      316.02552      5.9318484    
       390   418.70703     -247.12805      0              2.6029666      13299.679      82.285471      273.83779      356.12326      7.8450692    
       391   424.80921     -247.26141      0              2.6036896      13300.602      102.09512      277.80939      379.9045       5.933707     
       392   427.97432     -247.37155      0              2.6019952      13301.797      103.05769      279.85411      382.9118       7.8339981    
       393   427.37541     -247.45098      0              2.597693       13303.259      81.78607       279.43176      361.21782      5.9399401    
       394   422.54701     -247.49482      0              2.5908567      13304.965      37.480764      276.23938      313.72015      7.8364722    
       395   413.689       -247.50375      0              2.5818845      13306.87      -23.254534      270.40975      247.15522      5.9031006    
       396   401.84025     -247.48539      0              2.5715257      13308.917     -93.577211      262.62435      169.04714      7.8442085    
       397   388.8215      -247.45422      0              2.5608515      13311.042     -162.69817      254.07533      91.377161      5.9341277    
       398   376.91309     -247.42907      0              2.5511521      13313.183     -217.06537      246.25418      29.188814      7.8490025    
       399   368.29104     -247.42831      0              2.5437013      13315.29      -251.25558      240.58293     -10.672649      5.967163     
       400   364.48597     -247.46537      0              2.5394862      13317.333     -259.2827       238.06077     -21.221926      7.6002105    
       401   366.02512     -247.19262      0              2.8921627      13319.307     -269.73354      239.03062     -30.702913      5.8677396    
       402   372.32056     -247.31225      0              2.8956933      13321.206     -221.50083      243.10718      21.606347      7.7011723    
       403   381.97664     -247.46065      0              2.9023688      13323.072     -151.05928      249.37718      98.3179        5.9119104    
       404   393.09927     -247.6227       0              2.9111629      13324.968     -66.64899       256.60219      189.9532       7.7347462    
       405   403.75372     -247.7827       0              2.9209019      13326.963      19.660758      263.51759      283.17835      5.892371     
       406   412.31701     -247.92722      0              2.9304727      13329.129      97.507844      269.06286      366.57071      5.8484861    
       407   417.64862     -248.0466       0              2.9389489      13331.527      158.66869      272.49306      431.16174      5.8486011    
       408   419.10827     -248.13507      0              2.9456489      13334.2        198.15889      273.39058      471.54947      7.7146952    
       409   416.48993     -248.19026      0              2.950152       13337.174      213.5828       271.62202      485.20481      5.9015344    
       410   409.96917     -248.21286      0              2.9523011      13340.452      205.39696      267.30367      472.70064      7.4393164    
       411   400.1116      -248.20665      0              2.9521978      13344.017      176.5014       260.80676      437.30816      5.8290949    
       412   387.93562     -248.17939      0              2.9501893      13347.833      131.6421       252.79774      384.43984      7.7403788    
       413   374.96364     -248.14299      0              2.9468335      13351.853      77.520731      244.271        321.79173      5.9240977    
       414   363.1365      -248.11339      0              2.9428241      13356.023      22.188358      236.49232      258.68067      7.8079617    
       415   354.48761     -248.10769      0              2.9388756      13360.29      -26.791954      230.786        203.99404      5.9549981    
       416   350.61285     -248.13985      0              2.935555       13364.61      -64.290443      228.1896       163.89915      7.8059045    
       417   352.14274     -248.21606      0              2.9331451      13368.949     -88.411127      229.11091      140.69979      5.8171616    
       418   358.48384     -248.33221      0              2.9315818      13373.289     -101.61728      233.16086      131.54358      7.8248639    
       419   368.00389     -248.47553      0              2.930506       13377.624     -108.56012      239.27521      130.71509      5.9100867    
       420   378.60256     -248.62895      0              2.9293698      13381.953     -115.82702      246.0868       130.25978      7.5932328    
       421   388.39612     -248.41499      0              3.2895234      13386.278     -158.71766      252.37094      93.653284      5.8719158    
       422   396.20461     -248.54767      0              3.2866516      13390.569     -187.34347      257.36222      70.01875       7.7090903    
       423   401.73101     -248.66253      0              3.2823897      13394.809     -230.70937      260.86939      30.160017      5.8727736    
       424   405.30346     -248.76228      0              3.2766887      13398.969     -286.73938      263.1075      -23.631884      7.4466462    
       425   407.42984     -248.85103      0              3.2695896      13403.008     -352.83457      264.40816     -88.426419      5.8581631    
       426   408.39334     -248.93097      0              3.2611359      13406.878     -428.01134      264.95692     -163.05442      7.6682355    
       427   408.16645     -249.0015       0              3.2513999      13410.526     -508.80109      264.73769     -244.06339      5.861925     
       428   406.6404      -249.0614       0              3.2405762      13413.892     -591.53028      263.68171     -327.84857      7.7001105    
       429   403.91731     -249.11107      0              3.2291101      13416.918     -672.94153      261.85689     -411.08464      5.8433061    
       430   400.46796     -249.15418      0              3.2177042      13419.545     -747.77187      259.56987     -488.202        5.849567     
       431   397.06123     -249.19701      0              3.2071955      13421.723     -810.41769      257.31997     -553.09772      7.6928692    
       432   394.52602     -249.24644      0              3.1983488      13423.411     -856.48729      255.64484     -600.84245      5.8802671    
       433   393.50242     -249.30798      0              3.1916492      13424.585     -882.60644      254.95929     -627.64715      7.6793908    
       434   394.28759     -249.38431      0              3.1871767      13425.234     -887.29419      255.45566     -631.83853      5.8897853    
       435   396.78318     -249.47495      0              3.1846235      13425.369     -872.72207      257.06995     -615.65212      7.701118     
       436   400.54819     -249.57657      0              3.1834444      13425.015     -842.25202      259.51608     -582.73594      5.8770683    
       437   404.95765     -249.68412      0              3.1830333      13424.211     -800.30086      262.3887      -537.91217      7.7269368    
       438   409.42446     -249.79288      0              3.1828905      13423.003     -751.89559      265.30679     -486.5888       5.8972458    
       439   413.62906     -249.90015      0              3.1827193      13421.443     -701.40838      268.06254     -433.34584      7.7077475    
       440   417.67031     -250.00678      0              3.182432       13419.58      -651.64976      270.71915     -380.93061      5.7385213    
       441   422.052       -249.75466      0              3.5444698      13417.464     -634.35345      273.60234     -360.75112      5.7819766    
       442   427.49412     -249.87473      0              3.5441875      13415.117     -589.94996      277.17876     -312.7712       7.58256      
       443   434.69637     -250.01076      0              3.5440179      13412.584     -547.62302      281.90181     -265.72121      5.8082133    
       444   443.97774     -250.16598      0              3.5439858      13409.904     -507.70891      287.97832     -219.73058      7.5851108    
       445   455.04442     -250.33839      0              3.5439949      13407.12      -471.36538      295.21784     -176.14755      5.8087072    
       446   466.9356      -250.5205       0              3.5438143      13404.267     -441.62022      302.99692     -138.62331      7.5957723    
       447   478.19006     -250.70037      0              3.5431122      13401.377     -421.26134      310.36691     -110.89442      5.8355445    
       448   487.1889      -250.86439      0              3.5415231      13398.472     -413.97427      316.27611     -97.698157      7.6042554    
       449   492.57474     -251.00093      0              3.5387127      13395.564     -422.281        319.84194     -102.43905      5.8310704    
       450   493.63958     -251.10319      0              3.5345397      13392.649     -446.81939      320.60315     -126.21623      7.6070325    
       451   490.58179     -251.17205      0              3.5290627      13389.707     -485.7487       318.68721     -167.06148      5.6969978    
       452   484.54017     -251.21599      0              3.522507       13386.707     -533.38946      314.83304     -218.55641      7.5891259    
       453   477.34349     -251.24967      0              3.515224       13383.61      -584.07192      310.22873     -273.84318      4.6901127    
       454   471.02218     -251.28968      0              3.5075628      13380.374     -633.5201       306.1945      -327.3256       7.6050678    
       455   467.23443     -251.34998      0              3.499778       13376.96      -676.58817      303.80974     -372.77843      5.8296942    
       456   466.7958      -251.43781      0              3.4919541      13373.336     -710.34615      303.60677     -406.73938      7.5988001    
       457   469.46885     -251.55174      0              3.4839767      13369.481     -734.6312       305.43338     -429.19782      5.8009837    
       458   474.07627     -251.68254      0              3.4755609      13365.383     -751.22443      308.52553     -442.6989       7.4292244    
       459   478.84826     -251.81579      0              3.4663437      13361.036     -764.73002      311.7325      -452.99752      5.7999347    
       460   481.88392     -251.93567      0              3.4560383      13356.438     -779.48876      313.81672     -465.67204      7.4044279    
       461   481.59476     -251.63307      0              3.8402868      13351.585     -829.00261      313.74241     -515.2602       5.7494997    
       462   477.14477     -251.69138      0              3.8279712      13346.444     -853.62299      310.96311     -542.65988      7.3212735    
       463   468.75546     -251.7158       0              3.8149274      13341.002     -881.30638      305.62029     -575.68608      5.7664798    
       464   457.70608     -251.71613      0              3.802016       13335.237     -907.11292      298.54528     -608.56764      7.312178     
       465   446.20991     -251.71012      0              3.7902583      13329.134     -923.44352      291.18001     -632.26351      5.7392671    
       466   436.94151     -251.72012      0              3.7806105      13322.681     -922.57529      285.26992     -637.30537      7.3340883    
       467   432.29583     -251.76678      0              3.7737501      13315.882     -900.29673      282.38096     -617.91577      5.7581695    
       468   433.6301      -251.86254      0              3.7699188      13308.76      -856.3715       283.40408     -572.96742      7.5354568    
       469   440.80199     -252.00771      0              3.7688131      13301.36      -793.52199      288.25164     -505.27035      5.7706163    
       470   452.1685      -252.18985      0              3.7696214      13293.74      -719.04008      295.85398     -423.1861       7.5299257    
       471   465.03263     -252.38742      0              3.7711839      13285.969     -643.3791       304.44895     -338.93016      5.7733033    
       472   476.36288     -252.57551      0              3.7722374      13278.117     -577.82829      312.05109     -265.7772       5.7493128    
       473   483.54133     -252.73207      0              3.7716575      13270.242     -530.76453      316.94145     -213.82308      7.320985     
       474   484.90882     -252.84244      0              3.7686489      13262.386     -511.05224      318.02607     -193.02618      5.7654863    
       475   479.99996     -252.90155      0              3.7628462      13254.563     -522.62162      314.9924      -207.62922      7.5195031    
       476   469.49395     -252.91366      0              3.7543108      13246.761     -564.71112      308.27945     -256.43167      4.6506671    
       477   454.93299     -252.89035      0              3.7434438      13238.943     -634.19541      298.89483     -335.30057      7.3050262    
       478   438.30367     -252.84713      0              3.7308727      13231.047     -723.97967      288.14109     -435.83858      5.743975     
       479   421.57719     -252.79987      0              3.7173385      13222.997     -826.79552      277.31381     -549.48171      7.4850898    
       480   406.31585     -252.7613       0              3.703547       13214.709     -935.70822      267.44252     -668.2657       5.6369319    
       481   393.49762     -252.34476      0              4.0846858      13206.098     -1090.2107      259.17428     -831.0364       7.4005714    
       482   383.43107     -252.34307      0              4.070868       13197.045     -1195.9252      252.71724     -943.20791      5.7183592    
       483   376.00025     -252.36047      0              4.0578029      13187.477     -1294.772       247.99944     -1046.7725      7.417456     
       484   370.95398     -252.39525      0              4.0455421      13177.325     -1381.4668      244.85955     -1136.6072      5.6759621    
       485   368.01146     -252.44539      0              4.0340096      13166.537     -1457.8835      243.1163      -1214.7672      7.3892116    
       486   366.88395     -252.50894      0              4.0229819      13155.067     -1524.7381      242.58276     -1282.1553      5.6925901    
       487   367.24492     -252.5834       0              4.0121188      13142.882     -1583.787       243.04656     -1340.7404      7.4166753    
       488   368.70121     -252.6658       0              4.0010355      13129.955     -1636.9227      244.25059     -1392.6721      5.7087931    
       489   370.80987     -252.7526       0              3.989344       13116.266     -1686.0106      245.90386     -1440.1068      7.3842932    
       490   373.11913     -252.84009      0              3.9767147      13101.799     -1732.0321      247.70848     -1484.3236      5.6953046    
       491   375.21157     -252.92485      0              3.9629359      13086.541     -1774.8737      249.38804     -1525.4857      7.3745223    
       492   376.73572     -253.00387      0              3.9479717      13070.482     -1814.9536      250.70874     -1564.2449      5.6371288    
       493   377.45096     -253.07511      0              3.9319713      13053.615     -1847.3469      251.50928     -1595.8376      7.2795931    
       494   377.22845     -253.13751      0              3.9152531      13035.938     -1871.806       251.70187     -1620.1041      5.6296583    
       495   376.02286     -253.19056      0              3.89831        13017.455     -1887.1433      251.25369     -1635.8896      7.2959163    
       496   373.87316     -253.23452      0              3.881687       12998.177     -1890.9209      250.18779     -1640.7331      5.6199466    
       497   370.88629     -253.27028      0              3.8658873      12978.125     -1881.3431      248.57252     -1632.7706      7.2858505    
       498   367.21975     -253.29922      0              3.8512973      12957.325     -1855.781       246.51024     -1609.2707      5.5017703    
       499   363.07187     -253.32304      0              3.8381571      12935.818     -1812.7681      244.13104     -1568.6371      7.1205827    
       500   358.66516     -253.34391      0              3.826587       12913.655     -1753.956       241.58184     -1512.3741      5.5076179    
       501   354.24142     -252.98815      0              4.1923261      12890.899     -1720.643       239.0234      -1481.6196      7.2006591    
       502   350.01129     -253.01001      0              4.1829534      12867.59      -1639.3821      236.59694     -1402.7852      5.5825589    
       503   346.2593      -253.03575      0              4.1748797      12843.804     -1544.075       234.49418     -1309.5808      7.1913077    
       504   343.32036     -253.06852      0              4.1680234      12819.625     -1439.9893      232.94239     -1207.0469      5.5886468    
       505   341.52346     -253.11137      0              4.1622859      12795.141     -1329.77        232.1666      -1097.6034      7.2287228    
       506   341.18564     -253.16724      0              4.1575605      12770.443     -1213.7509      232.38552     -981.3654       5.597132     
       507   342.60005     -253.23896      0              4.153711       12745.624     -1091.8459      233.80329     -858.04263      7.2155732    
       508   345.99866     -253.3288       0              4.1505656      12720.777     -966.42855      236.58383     -729.84472      5.5742889    
       509   351.51622     -253.43827      0              4.1479089      12695.999     -839.03808      240.82566     -598.21242      7.1955731    
       510   359.15618     -253.56776      0              4.145467       12671.384     -711.84491      246.53784     -465.30708      5.5547643    
       511   368.75811     -253.71629      0              4.1429006      12647.024     -585.94875      253.61652     -332.33223      5.5562934    
       512   379.98146     -253.88139      0              4.1397853      12623.007     -465.61181      261.83269     -203.77912      7.2082571    
       513   392.30773     -254.05887      0              4.1356468      12599.418     -354.96006      270.83243     -84.127628      7.2019213    
       514   405.07425     -254.24341      0              4.1300024      12576.33      -256.78829      280.15928      23.37099       5.5727764    
       515   417.53894     -254.42876      0              4.1224221      12553.805     -173.30679      289.2983       115.99151      7.2132461    
       516   428.95075     -254.60842      0              4.112586       12531.895     -106.80832      297.72477      190.91645      5.5752668    
       517   438.62015     -254.77638      0              4.1003334      12510.635     -59.68271       304.95341      245.2707       7.2145677    
       518   445.99446     -254.9275       0              4.0856805      12490.047     -32.998804      310.59158      277.59277      5.5743847    
       519   450.72691     -255.05826      0              4.0688151      12470.136     -27.122501      314.38846      287.26596      7.2205159    
       520   452.72876     -255.16721      0              4.050073       12450.89      -41.782774      316.27289      274.49012      5.3616493    
       521   452.20769     -254.88243      0              4.4028461      12432.284     -107.53902      316.38166      208.84265      7.1369528    
       522   449.68288     -254.95383      0              4.3812497      12414.257     -156.29879      315.07208      158.77329      5.5283902    
       523   445.94706     -255.01414      0              4.3592101      12396.759     -217.4139       312.89557      95.481673      5.5261184    
       524   441.97547     -255.07117      0              4.3373341      12379.736     -285.96557      310.53538      24.569811      7.1039714    
       525   438.8004      -255.13339      0              4.3161925      12363.125     -356.59563      308.71877     -47.876864      7.0898262    
       526   437.34124     -255.20868      0              4.2962974      12346.87      -424.09083      308.09727     -115.99356      5.5174117    
       527   438.24092     -255.30279      0              4.278083       12330.914     -483.03082      309.13056     -173.90026      7.1187517    
       528   441.73567     -255.41828      0              4.2618315      12315.212     -529.78533      311.993       -217.79233      5.5392097    
       529   447.60184     -255.55395      0              4.2476251      12299.729     -563.13915      316.53417     -246.60498      7.1393638    
       530   455.19905     -255.70506      0              4.2353085      12284.44      -583.91063      322.3074      -261.60323      5.5273016    
       531   463.5879      -255.86431      0              4.224494       12269.33      -595.07045      328.65143     -266.41902      7.1135568    
[...]
       874   392.37832     -273.31685      0              6.5972086      4872.7499     -5788.907       700.41457     -5088.4925      5.7233497    
       875   378.82551     -273.28783      0              6.5796602      4852.9329     -5574.9242      678.9835      -4895.9407      4.62361      
       876   364.89148     -273.25453      0              6.5612623      4833.5233     -5366.9461      656.63526     -4710.3108      5.6768099    
       877   351.53937     -273.22467      0              6.542485       4814.5251     -5159.7712      635.10392     -4524.6673      4.6330322    
       878   339.72469     -273.20606      0              6.5238029      4795.9416     -4949.6587      616.13731     -4333.5213      5.8922256    
       879   330.2571      -273.20555      0              6.5055961      4777.7758     -4732.6666      601.24389     -4131.4227      4.7551219    
       880   323.67116     -273.22805      0              6.48811        4760.0309     -4506.5951      591.45065     -3915.1444      5.6112881    
       881   319.98334     -272.86502      0              6.8818084      4742.711      -4429.6459      586.84714     -3842.7987      4.5919407    
       882   318.95792     -272.93509      0              6.8663667      4725.8053     -4186.9173      587.05914     -3599.8582      5.8288108    
       883   320.16877     -273.02433      0              6.8514065      4709.3197     -3946.86        591.35064     -3355.5094      4.7072559    
       884   322.83391     -273.12643      0              6.8367646      4693.2596     -3715.4261      598.31357     -3117.1125      5.6594799    
       885   326.14906     -273.23492      0              6.8222382      4677.6289     -3498.7927      606.47744     -2892.3152      4.6014296    
       886   329.43956     -273.3441       0              6.8076372      4662.4296     -3303.843       614.5932      -2689.2498      5.630261     
       887   332.26319     -273.45014      0              6.7928698      4647.6612     -3128.3762      621.83055     -2506.5456      4.5789661    
       888   334.4349      -273.55133      0              6.7779583      4633.3209     -2974.6743      627.83207     -2346.8422      5.6276607    
       889   335.97785     -273.64753      0              6.7629917      4619.4037     -2846.9055      632.62887     -2214.2767      4.71056      
       890   337.04241     -273.73977      0              6.7481447      4605.902      -2744.0391      636.49375     -2107.5454      5.8195626    
       891   337.80948     -273.82929      0              6.7335808      4592.806      -2666.1767      639.76138     -2026.4153      4.60481      
       892   338.42016     -273.91708      0              6.7194543      4580.104      -2607.9849      642.69537     -1965.2895      5.628739     
       893   338.95125     -274.00373      0              6.7058667      4567.7826     -2560.9032      645.44033     -1915.4628      4.709436     
       894   339.41235     -274.08912      0              6.6928584      4555.8284     -2529.1001      648.01427     -1881.0858      5.6578815    
       895   339.76325     -274.17294      0              6.6804209      4544.2269     -2512.5013      650.34032     -1862.161       4.5815286    
       896   339.95448     -274.25458      0              6.6685132      4532.963      -2506.7431      652.32329     -1854.4198      5.6471439    
       897   339.96269     -274.33385      0              6.6570527      4522.0213     -2512.0076      653.91747     -1858.0902      4.588737     
       898   339.80803     -274.41086      0              6.645968       4511.3861     -2523.2895      655.16084     -1868.1286      5.6476259    
       899   339.55854     -274.48611      0              6.6352244      4501.0419     -2538.3749      656.18437     -1882.1905      4.5889087    
       900   339.32386     -274.56055      0              6.6248177      4490.9738     -2555.3199      657.20093     -1898.119       5.5100058    
       901   339.12737     -274.23022      0              7.0198103      4481.1671     -2773.0513      658.25777     -2114.7935      4.5554419    
       902   339.09106     -274.30573      0              7.0104019      4471.5905     -2802.4577      659.59689     -2142.8609      5.5741547    
       903   339.41494     -274.38339      0              7.0011279      4462.2309     -2838.8721      661.61174     -2177.2604      3.9126376    
       904   340.1368      -274.46357      0              6.9919962      4453.0749     -2882.5255      664.38208     -2218.1434      5.5902494    
       905   341.22103     -274.54603      0              6.9829345      4444.1095     -2937.844       667.84445     -2269.9995      4.6700114    
       906   342.54803     -274.62984      0              6.9737666      4435.3213     -3006.8048      671.77011     -2335.0347      5.7841233    
       907   343.92753     -274.71338      0              6.964202       4426.6964     -3087.3257      675.78956     -2411.5361      4.5634463    
       908   345.1311      -274.79489      0              6.953833       4418.2208     -3187.2183      679.4554      -2507.7629      5.5767189    
       909   345.92057     -274.87233      0              6.9421878      4409.8793     -3314.3726      682.29779     -2632.0749      4.6581621    
       910   346.09372     -274.94382      0              6.928803       4401.6552     -3468.5904      683.91477     -2784.6756      5.4876418    
       911   345.52655     -275.00829      0              6.9132801      4393.5301     -3653.3951      684.05671     -2969.3384      4.4888483    
       912   344.19064     -275.0653       0              6.8953667      4385.4839     -3871.5008      682.66215     -3188.8387      5.640591     
       913   342.16615     -275.11539      0              6.8749701      4377.4946     -4119.742       679.8854      -3439.8566      4.4703931    
       914   339.63237     -275.15979      0              6.8521706      4369.5386     -4395.6339      676.07953     -3719.5544      5.482198     
       915   336.85598     -275.20067      0              6.8271962      4361.591      -4690.0327      671.77466     -4018.258       4.4724137    
       916   334.15013     -275.24065      0              6.8004264      4353.6266     -5002.3452      667.59757     -4334.7477      5.4849447    
       917   331.81791     -275.28222      0              6.7722892      4345.6201     -5329.9187      664.15944     -4665.7592      4.4906959    
       918   330.1121      -275.32743      0              6.7431903      4337.5462     -5667.5696      661.97504     -5005.5946      5.4823752    
       919   329.19058     -275.37781      0              6.7134944      4329.38       -6010.0541      661.37228     -5348.6818      4.5956181    
       920   329.09234     -275.43377      0              6.6834778      4321.0977     -6351.0048      662.44216     -5688.5626      5.3550817    
       921   329.69563     -275.05744      0              7.0906264      4312.6772     -6882.7725      664.95235     -6217.8202      4.4590927    
       922   330.77599     -275.12227      0              7.0596195      4304.0818     -7233.1278      668.46358     -6564.6642      5.4195095    
       923   332.08198     -275.18808      0              7.0282572      4295.2917     -7592.1559      672.47623     -6919.6796      4.5561047    
       924   333.32234     -275.25244      0              6.9965218      4286.2875     -7960.0706      676.40593     -7283.6647      5.5716777    
       925   334.27155     -275.31339      0              6.9643807      4277.0504     -8331.0182      679.79714     -7651.2211      4.4537165    
       926   334.8422      -275.37008      0              6.9317963      4267.562      -8705.7133      682.47168     -8023.2416      5.4151353    
       927   335.12321     -275.42307      0              6.8987702      4257.8052     -9083.1122      684.60964     -8398.5026      4.4377339    
       928   335.38513     -275.47446      0              6.8653557      4247.7632     -9459.6263      686.76441     -8772.8619      5.4377097    
       929   336.05437     -275.52767      0              6.8316409      4237.4209     -9827.0761      689.81434     -9137.2618      4.4426053    
       930   337.61814     -275.58682      0              6.7977593      4226.7649     -10182.297      694.77145     -9487.526       5.4273618    
       931   340.50258     -275.65544      0              6.7638715      4215.7838     -10517.128      702.53242     -9814.5955      4.5505361    
       932   344.96121     -275.73601      0              6.7301188      4204.4691     -10824.811      713.64689     -10111.164      5.4073492    
       933   350.97854     -275.82861      0              6.696596       4192.8157     -11106.1        728.11349     -10377.986      4.4435176    
       934   358.241       -275.931        0              6.6634204      4180.8214     -11361.844      745.31174     -10616.532      5.4133328    
       935   366.21387     -276.03894      0              6.6307389      4168.4867     -11593.454      764.15359     -10829.301      4.4391577    
       936   374.27378     -276.14753      0              6.5987518      4155.8146     -11803.002      783.35301     -11019.649      5.4246106    
       937   381.84987     -276.25203      0              6.5677347      4142.8105     -11990.842      801.71843     -11189.123      4.552564     
       938   388.53471     -276.34915      0              6.5380911      4129.4812     -12153.06       818.3868      -11334.673      5.422967     
       939   394.15055     -276.43741      0              6.5103429      4115.8359     -12284.76       832.9681      -11451.792      4.5125188    
       940   398.76402     -276.51732      0              6.4850644      4101.8857     -12383.562      845.5839      -11537.978      5.4011761    
       941   402.51395     -276.13272      0              6.9214157      4087.6442     -12639.29       856.50942     -11782.78       4.4672882    
       942   405.82059     -276.20369      0              6.903125       4073.1132     -12668.813      866.62634     -11802.186      5.4793517    
       943   409.36917     -276.27695      0              6.8883343      4058.3113     -12669.262      877.39279     -11791.87       4.4744184    
       944   413.72659     -276.35753      0              6.8769996      4043.259      -12637.327      890.0331      -11747.294      5.47178      
       945   419.40836     -276.45023      0              6.8687663      4027.9785     -12572.689      905.67886     -11667.01       4.4793428    
       946   426.79567     -276.55885      0              6.8630834      4012.4938     -12464.595      925.18786     -11539.407      5.4595481    
       947   436.05563     -276.68564      0              6.8593393      3996.8314     -12317.833      948.96535     -11368.867      4.5693487    
       948   447.10276     -276.83056      0              6.8569135      3981.0198     -12134.756      976.8712      -11157.885      5.6566734    
       949   459.6245      -276.99176      0              6.8551654      3965.0889     -11921.598      1008.2646     -10913.333      4.6036224    
       950   473.13378     -277.16581      0              6.8534201      3949.0696     -11683.849      1042.1097     -10641.739      5.4737637    
       951   487.04041     -277.34836      0              6.8509514      3932.9931     -11432.666      1077.125      -10355.541      4.4780931    
       952   500.72193     -277.53466      0              6.8470209      3916.8899     -11178.649      1111.9353     -10066.714      5.6265353    
       953   513.58635     -277.71998      0              6.8409981      3900.7889     -10931.633      1145.2105     -9786.422       4.4792332    
       954   525.12959     -277.90016      0              6.8324477      3884.7169     -10691.943      1175.7945     -9516.1485      5.4835855    
       955   534.95296     -278.0718       0              6.8212095      3868.6984     -10464.102      1202.749      -9261.353       4.4714779    
       956   542.75076     -278.23195      0              6.8073574      3852.7554     -10256.577      1225.3306     -9031.2467      5.4655935    
       957   548.2871      -278.37823      0              6.7910809      3836.907      -10082.473      1242.9425     -8839.5305      4.4635293    
       958   551.37045     -278.50828      0              6.7726681      3821.1682     -9940.6037      1255.0806     -8685.5231      5.4686811    
       959   551.85847     -278.62028      0              6.7524047      3805.551      -9829.6441      1261.3466     -8568.2975      4.4815437    
       960   549.65299     -278.71254      0              6.7306107      3790.0639     -9758.9969      1261.4393     -8497.5576      5.3516749    
       961   544.55905     -278.26371      0              7.2278699      3774.7118     -9968.6462      1254.8316     -8713.8145      4.4415424    
       962   536.72189     -278.31356      0              7.2044154      3759.4816     -9993.1239      1241.7828     -8751.3412      5.4105842    
       963   526.75158     -278.34497      0              7.1803547      3744.3715     -10063.46       1223.6331     -8839.8271      4.4409504    
       964   515.44454     -278.36342      0              7.1562952      3729.3767     -10168.343      1202.1813     -8966.162       5.5831411    
       965   503.94705     -278.37776      0              7.1328924      3714.4904     -10295.856      1180.0759     -9115.7798      4.4466729    
       966   493.55772     -278.39845      0              7.1107636      3699.7046     -10435.67       1160.3665     -9275.3037      5.419597     
       967   485.3969      -278.4349       0              7.0904312      3685.011      -10570.517      1145.7305     -9424.7867      4.4336687    
       968   480.07065     -278.49251      0              7.0721534      3670.4025     -10699.166      1137.6685     -9561.4971      5.5797429    
       969   477.50231     -278.57124      0              7.0560202      3655.8731     -10814.451      1136.0793     -9678.3713      4.5510155    
       970   477.06401     -278.66635      0              7.0419979      3641.4182     -10913.182      1139.5421     -9773.6397      5.5913433    
       971   477.94469     -278.77149      0              7.0300232      3627.0348     -11002.101      1146.1731     -9855.9276      4.4412281    
       972   479.57249     -278.88235      0              7.0200247      3612.7206     -11079.969      1154.6336     -9925.3351      5.4320224    
       973   481.86088     -278.9985       0              7.0120569      3598.4744     -11137.306      1164.7361     -9972.5697      4.5687017    
       974   485.15868     -279.12347      0              7.0062322      3584.296      -11164.437      1177.3463     -9987.091       5.4221349    
       975   489.98123     -279.26224      0              7.0026179      3570.1874     -11144.621      1193.7482     -9950.8733      4.4529158    
       976   496.66256     -279.41846      0              7.0010992      3556.1527     -11075.173      1214.8015     -9860.3712      5.429511     
       977   505.11181     -279.59223      0              7.0013069      3542.1993     -10959.227      1240.3345     -9718.8929      4.5699526    
       978   514.80531     -279.77993      0              7.0026365      3528.3364     -10796.66       1269.1043     -9527.5558      5.4259549    
       979   524.95903     -279.97566      0              7.004262       3514.5754     -10597.777      1299.2024     -9298.5741      4.4503832    
       980   534.75444     -280.17284      0              7.0052612      3500.929      -10377.537      1328.6035     -9048.9333      5.4565432    
       981   543.19819     -279.75565      0              7.6152577      3487.4098     -10514.566      1354.8138     -9159.7525      4.4104475    
       982   549.84316     -279.93882      0              7.6142458      3474.0108     -10312.754      1376.6767     -8936.0771      5.5436135    
       983   554.75336     -280.11158      0              7.609951       3460.7425     -10144.273      1394.2959     -8749.9776      4.4128264    
       984   557.76058     -280.27201      0              7.6020716      3447.6129     -10023.73       1407.1928     -8616.5367      5.3854675    
       985   558.75375     -280.41839      0              7.5904588      3434.6263     -9962.303       1415.0287     -8547.2743      4.5182712    
       986   557.68794     -280.54957      0              7.5750659      3421.7836     -9955.7357      1417.6303     -8538.1054      5.3521696    
       987   554.55561     -280.66459      0              7.5559265      3409.0823     -10024.266      1414.9201     -8609.3462      4.421685     
       988   549.38092     -280.76256      0              7.5331564      3396.5156     -10169.76       1406.9033     -8762.8564      5.3745184    
       989   542.26801     -280.84334      0              7.5069424      3384.0732     -10389.565      1393.7938     -8995.7716      4.406187     
       990   533.4164      -280.90759      0              7.4775151      3371.7412     -10679.377      1376.057      -9303.3203      5.3706676    
       991   523.16221     -280.95715      0              7.4451935      3359.5027     -11028.689      1354.5207     -9674.1683      4.4092899    
       992   512.03667     -280.99566      0              7.410349       3347.3386     -11433.861      1330.5332     -10103.327      5.3839372    
       993   500.82212     -281.02892      0              7.3734275      3335.2283     -11881.402      1306.1174     -10575.285      4.539808     
       994   490.54198     -281.06516      0              7.3349238      3323.1503     -12359.19       1283.957      -11075.233      5.3579194    
       995   482.30862     -281.11368      0              7.2953159      3311.0829     -12854.07       1267.0077     -11587.062      4.4177815    
       996   477.02718     -281.18247      0              7.2549643      3299.0055     -13353.156      1257.7211     -12095.435      5.3602657    
       997   475.04977     -281.27518      0              7.2140757      3286.8989     -13851.402      1257.1209     -12594.281      4.4163433    
       998   475.96215     -281.38905      0              7.1727472      3274.7458     -14348.491      1264.2097     -13084.282      5.4615819    
       999   478.65931     -281.51542      0              7.1310078      3262.5302     -14848.147      1276.1339     -13572.013      4.4860609    
      1000   481.68672     -281.6424       0              7.088858       3250.2379     -15359.474      1289.062      -14070.412      5.3565893    
Loop time of 163.817 on 4 procs for 1000 steps with 64 atoms

Performance: 1.055 ns/day, 22.752 hours/ns, 6.104 timesteps/s, 390.680 atom-step/s
81.3% CPU use with 4 MPI tasks x 1 OpenMP threads

MPI task timing breakdown:
Section |  min time  |  avg time  |  max time  |%varavg| %total
---------------------------------------------------------------
Pair    | 42.531     | 42.531     | 42.532     |   0.0 | 25.96
Neigh   | 0.0012285  | 0.0015037  | 0.0017577  |   0.6 |  0.00
Comm    | 0.01576    | 0.016143   | 0.016885   |   0.3 |  0.01
Output  | 0.14385    | 0.15031    | 0.16113    |   1.7 |  0.09
Modify  | 121.1      | 121.11     | 121.12     |   0.1 | 73.93
Other   |            | 0.004269   |            |       |  0.00

Nlocal:             16 ave          21 max          11 min
Histogram: 1 1 0 0 0 0 0 0 0 2
Nghost:          327.5 ave         332 max         317 min
Histogram: 1 0 0 0 0 0 0 0 1 2
Neighs:              0 ave           0 max           0 min
Histogram: 4 0 0 0 0 0 0 0 0 0
FullNghs:          621 ave         813 max         440 min
Histogram: 1 1 0 0 0 0 0 0 1 1

Total # of neighbors = 2484
Ave neighs/atom = 38.8125
Neighbor list builds = 54
Dangerous builds = 0
Total wall time: 0:03:01
