 vasp.6.4.2 20Jul23 (build Jun 27 2024 19:57:08) complex                        
  
 executed on                 T2A5 date 2026.01.13  22:04:41
 running   28 mpi-ranks, with    1 threads/rank, on    1 nodes
 distrk:  each k-point on   28 cores,    1 groups
 distr:  one band on NCORE=  28 cores,    1 groups


--------------------------------------------------------------------------------------------------------


 INCAR:
   ISTART = 1
   ICHARG = 1
   LWAVE = .T.
   LCHARG = .T.
   ENCUT = 250
   PREC = Normal
   ADDGRID = .F.
   EDIFF = 1E-4
   LREAL = Auto
   ALGO = Fast
   NSW = 0
   IBRION = -1
   ISMEAR = 0
   SIGMA = 0.1
   NPAR = 1
   KPAR = 1
   SYMPREC = 1E-4

 POTCAR:    PAW_PBE Si 05Jan2001                  
 POTCAR:    PAW_PBE Si 05Jan2001                  
   SHA256 =  79d9987ad8750f624c4d6acb2a16d13abf6a777132adc04dc6c8399be72b42bb Si/POTCAR             
   COPYR  = (c) Copyright 05Jan2001 Georg Kresse                                                    
   COPYR  = This file is part of the software VASP. Any use, copying, and all other rights are regul
   COPYR  = If you do not have a valid VASP license, you may not use, copy or distribute this file. 
   VRHFIN =Si: s2p2                                                                                 
   LEXCH  = PE                                                                                      
   EATOM  =   103.0669 eV,    7.5752 Ry                                                             
                                                                                                    
   TITEL  = PAW_PBE Si 05Jan2001                                                                    
   LULTRA =        F    use ultrasoft PP ?                                                          
   IUNSCR =        1    unscreen: 0-lin 1-nonlin 2-no                                               
   RPACOR =    1.500    partial core radius                                                         
   POMASS =   28.085; ZVAL   =    4.000    mass and valenz                                          
   RCORE  =    1.900    outmost cutoff radius                                                       
   RWIGS  =    2.480; RWIGS  =    1.312    wigner-seitz radius (au A)                               
   ENMAX  =  245.345; ENMIN  =  184.009 eV                                                          
   ICORE  =        2    local potential                                                             
   LCOR   =        T    correct aug charges                                                         
   LPAW   =        T    paw PP                                                                      
   EAUG   =  322.069                                                                                
   DEXC   =    0.000                                                                                
   RMAX   =    1.950    core radius for proj-oper                                                   
   RAUG   =    1.300    factor for augmentation sphere                                              
   RDEP   =    1.993    radius for radial grids                                                     
   RDEPT  =    1.837    core radius for aug-charge                                                  
                                                                                                    
   Atomic configuration                                                                             
    6 entries                                                                                       
     n  l   j            E        occ.                                                              
     1  0  0.50     -1785.8828   2.0000                                                             
     2  0  0.50      -139.4969   2.0000                                                             
     2  1  1.50       -95.5546   6.0000                                                             
     3  0  0.50       -10.8127   2.0000                                                             
     3  1  0.50        -4.0811   2.0000                                                             
     3  2  1.50        -4.0817   0.0000                                                             
   Description                                                                                      
     l       E           TYP  RCUT    TYP  RCUT                                                     
     0    -10.8127223     23  1.900                                                                 
     0     -7.6451159     23  1.900                                                                 
     1     -4.0811372     23  1.900                                                                 
     1      2.4879257     23  1.900                                                                 
     2     -4.0817478      7  1.900                                                                 
  local pseudopotential read in
  partial core-charges read in
  partial kinetic energy density read in
  atomic valenz-charges read in
  non local Contribution for L=           0  read in
    real space projection operators read in
  non local Contribution for L=           0  read in
    real space projection operators read in
  non local Contribution for L=           1  read in
    real space projection operators read in
  non local Contribution for L=           1  read in
    real space projection operators read in
    PAW grid and wavefunctions read in
 
   number of l-projection  operators is LMAX  =           4
   number of lm-projection operators is LMMAX =           8
 
 Optimization of the real space projectors (new method)

 maximal supplied QI-value         = 19.84
 optimisation between [QCUT,QGAM] = [  7.94, 16.07] = [ 17.64, 72.34] Ry 
 Optimized for a Real-space Cutoff    1.55 Angstroem

   l    n(q)    QCUT    max X(q) W(low)/X(q) W(high)/X(q)  e(spline) 
   0      7     7.937   159.560    0.97E-04    0.31E-03    0.13E-06
   0      7     7.937   115.863    0.95E-04    0.31E-03    0.13E-06
   1      7     7.937    88.339    0.40E-03    0.66E-03    0.12E-06
   1      7     7.937    48.592    0.39E-03    0.64E-03    0.12E-06
  PAW_PBE Si 05Jan2001                  :
 energy of atom  1       EATOM= -103.0669
 kinetic energy error for atom=    0.0052 (will be added to EATOM!!)
 
 
 POSCAR: Si
  positions in cartesian coordinates
  No initial velocities read in
 exchange correlation table for  LEXCH =        8
   RHO(1)=    0.500       N(1)  =     2000
   RHO(2)=  100.500       N(2)  =     4000
 


--------------------------------------------------------------------------------------------------------


 ion  position               nearest neighbor table
   1  0.001  0.002  0.998-   5 2.33  47 2.34  54 2.35  32 2.39
   2  0.255  0.256  0.001-  16 2.32   6 2.38   5 2.39  15 2.39
   3  0.246  0.010  0.252-   5 2.32   7 2.37  22 2.39  24 2.40
   4  0.010  0.253  0.252-   8 2.29  38 2.31   5 2.36  39 2.36
   5  0.126  0.125  0.121-   3 2.32   1 2.33   4 2.36   2 2.39
   6  0.387  0.375  0.127-  36 2.36   2 2.38  49 2.39  19 2.40
   7  0.366  0.134  0.385-  41 2.37   3 2.37  10 2.38  36 2.39
   8  0.135  0.373  0.371-   4 2.29  19 2.33  10 2.35  25 2.40
   9  0.006  0.000  0.506-  24 2.32  62 2.38  39 2.39  13 2.44
  10  0.246  0.259  0.517-  13 2.30  14 2.33   8 2.35   7 2.38
  11  0.247  0.003  0.748-  32 2.32  13 2.34  15 2.34  30 2.35
  12  0.994  0.254  0.766-  16 2.32  13 2.33  46 2.41  47 2.45
  13  0.122  0.139  0.639-  10 2.30  12 2.33  11 2.34   9 2.44
  14  0.381  0.384  0.626-  44 2.31  10 2.33  57 2.35  27 2.37
  15  0.374  0.128  0.868-  11 2.34  44 2.36   2 2.39  33 2.42
  16  0.125  0.375  0.882-   2 2.32  12 2.32  17 2.33  27 2.40
  17  0.003  0.497  0.008-  16 2.33  63 2.34  38 2.36  21 2.38
  18  0.250  0.749  0.006-  21 2.35  22 2.39  31 2.40  32 2.40
  19  0.260  0.502  0.256-   8 2.33  21 2.35   6 2.40  23 2.41
  20  0.012  0.746  0.260-  55 2.28  21 2.31  24 2.39  54 2.40
  21  0.129  0.623  0.134-  20 2.31  18 2.35  19 2.35  17 2.38
  22  0.374  0.880  0.131-  33 2.33   3 2.39  18 2.39  52 2.40
  23  0.393  0.632  0.375-  52 2.26  57 2.29  26 2.31  19 2.41
  24  0.133  0.878  0.388-   9 2.32  26 2.37  20 2.39   3 2.40
  25  0.005  0.499  0.496-  55 2.35  46 2.37   8 2.40  29 2.43
  26  0.269  0.750  0.500-  23 2.31  30 2.37  24 2.37  29 2.38
  27  0.249  0.503  0.752-  29 2.33  31 2.35  14 2.37  16 2.40
  28  0.009  0.749  0.747-  29 2.34  32 2.36  62 2.40  63 2.53
  29  0.135  0.628  0.622-  27 2.33  28 2.34  26 2.38  25 2.43
  30  0.381  0.884  0.629-  41 2.30  11 2.35  60 2.36  26 2.37
  31  0.378  0.621  0.880-  49 2.25  27 2.35  60 2.38  18 2.40
  32  0.130  0.877  0.873-  11 2.32  28 2.36   1 2.39  18 2.40
  33  0.496  0.002  0.004-  64 2.33  22 2.33  37 2.39  15 2.42
  34  0.741  0.254  0.009-  48 2.33  37 2.33  47 2.36  38 2.37
  35  0.764  0.003  0.247-  54 2.28  56 2.38  39 2.39  37 2.42
  36  0.503  0.258  0.268-  40 2.31   6 2.36   7 2.39  37 2.40
  37  0.620  0.129  0.134-  34 2.33  33 2.39  36 2.40  35 2.42
  38  0.879  0.369  0.133-   4 2.31  51 2.34  17 2.36  34 2.37
  39  0.884  0.130  0.378-  42 2.32   4 2.36  35 2.39   9 2.39
  40  0.636  0.382  0.379-  36 2.31  42 2.37  51 2.38  57 2.43
  41  0.497  0.001  0.497-  30 2.30   7 2.37  56 2.41  45 2.44
  42  0.762  0.254  0.501-  39 2.32  45 2.35  46 2.36  40 2.37
  43  0.739  0.006  0.747-  45 2.29  62 2.32  47 2.37  64 2.40
  44  0.500  0.256  0.746-  14 2.31  48 2.36  15 2.36  45 2.39
  45  0.630  0.133  0.620-  43 2.29  42 2.35  44 2.39  41 2.44
  46  0.878  0.385  0.630-  59 2.35  42 2.36  25 2.37  12 2.41
  47  0.860  0.120  0.887-   1 2.34  34 2.36  43 2.37  12 2.45
  48  0.627  0.375  0.875-  34 2.33  49 2.33  59 2.35  44 2.36
  49  0.505  0.505  0.994-  31 2.25  48 2.33  53 2.36   6 2.39
  50  0.762  0.756  0.004-  63 2.32  53 2.38  54 2.38  64 2.43
  51  0.758  0.505  0.247-  38 2.34  40 2.38  53 2.38  55 2.38
  52  0.508  0.745  0.245-  23 2.26  53 2.28  22 2.40  56 2.45
  53  0.629  0.628  0.121-  52 2.28  49 2.36  51 2.38  50 2.38
  54  0.888  0.878  0.134-  35 2.28   1 2.35  50 2.38  20 2.40
  55  0.882  0.630  0.376-  20 2.28  25 2.35  58 2.38  51 2.38
  56  0.634  0.880  0.373-  58 2.37  35 2.38  41 2.41  52 2.45
  57  0.506  0.511  0.505-  23 2.29  61 2.30  14 2.35  40 2.43
  58  0.755  0.754  0.502-  61 2.32  56 2.37  55 2.38  62 2.40
  59  0.749  0.505  0.755-  48 2.35  46 2.35  63 2.36  61 2.43
  60  0.499  0.758  0.761-  64 2.30  30 2.36  31 2.38  61 2.41
  61  0.625  0.638  0.625-  57 2.30  58 2.32  60 2.41  59 2.43
  62  0.874  0.884  0.635-  43 2.32   9 2.38  58 2.40  28 2.40
  63  0.876  0.620  0.887-  50 2.32  17 2.34  59 2.36  28 2.53
  64  0.621  0.879  0.882-  60 2.30  33 2.33  43 2.40  50 2.43
 
  LATTYP: Found a base centered monoclinic cell.
 ALAT       =    26.6719487011
 B/A-ratio  =     0.5774719346
 C/A-ratio  =     0.4084351579
 COS(beta)  =    -0.8161938415
  
  Lattice vectors:
  
 A1 = ( -10.8856707900, -10.8935159200,   0.0000000000)
 A2 = ( -10.8838094800,  -0.0057758800, -10.8944029000)
 A3 = (  10.8937615800,   0.0000000000,   0.0000000000)


Analysis of symmetry for initial positions (statically):
=====================================================================
 Subroutine PRICEL returns:
 Original cell was already a primitive cell.
 

 Routine SETGRP: Setting up the symmetry group for a 
 base centered monoclinic supercell.


 Subroutine GETGRP returns: Found  1 space group operations
 (whereof  1 operations were pure point group operations)
 out of a pool of  4 trial point group operations.


The static configuration has the point symmetry C_1 .


Analysis of symmetry for dynamics (positions and initial velocities):
=====================================================================
 Subroutine PRICEL returns:
 Original cell was already a primitive cell.
 

 Routine SETGRP: Setting up the symmetry group for a 
 base centered monoclinic supercell.


 Subroutine GETGRP returns: Found  1 space group operations
 (whereof  1 operations were pure point group operations)
 out of a pool of  4 trial point group operations.


The dynamic configuration has the point symmetry C_1 .


 Subroutine INISYM returns: Found  1 space group operations
 (whereof  1 operations are pure point group operations),
 and found     1 'primitive' translations


----------------------------------------------------------------------------------------

                                     Primitive cell                                     

  volume of cell :    1292.8537

  direct lattice vectors                    reciprocal lattice vectors
    10.893761580  0.000000000  0.000000000     0.091795657  0.000068178  0.000083820
    -0.008090790 10.893515920  0.000000000     0.000000000  0.091797727 -0.000048668
    -0.009952100  0.005775880 10.894402900     0.000000000  0.000000000  0.091790253

  length of vectors
    10.893761580 10.893518925 10.894408977     0.091795720  0.091797740  0.091790253

  position of ions in fractional coordinates (direct lattice)
     0.001189769  0.001931209  0.998182547
     0.255275074  0.255513047  0.000775804
     0.246377726  0.010098138  0.252394850
     0.010096893  0.252675823  0.251658972
     0.125549743  0.125434696  0.120694748
     0.387483601  0.375475921  0.127137605
     0.366069581  0.134320110  0.385129069
     0.134780970  0.372965361  0.370979832
     0.005846258  0.000139458  0.506316148
     0.245987806  0.259207597  0.517372880
     0.247223631  0.002990838  0.747632362
     0.993936064  0.254055291  0.765985448
     0.121574326  0.138996167  0.638739375
     0.381178706  0.384233189  0.626353053
     0.374445984  0.127690734  0.867879795
     0.125450568  0.374790789  0.881960496
     0.002945205  0.496607474  0.008264148
     0.249807911  0.748723757  0.006387983
     0.260166690  0.501741135  0.255522405
     0.012274887  0.746243246  0.260190092
     0.129037981  0.623100313  0.133765451
     0.374454897  0.879713466  0.131379946
     0.392731875  0.631762942  0.375399191
     0.133313467  0.878237857  0.387588803
     0.005071355  0.498884571  0.496018286
     0.268698906  0.750083452  0.500012625
     0.249491910  0.503013183  0.752429394
     0.008709356  0.749386396  0.746560634
     0.135350415  0.628497036  0.622410822
     0.381401814  0.883737521  0.628836897
     0.377525495  0.620975498  0.880455516
     0.129755692  0.876716233  0.872671234
     0.496294223  0.001911495  0.004244273
     0.741330559  0.253992876  0.009239128
     0.763735637  0.002567674  0.247325791
     0.503385222  0.258239768  0.267598800
     0.620187875  0.128534955  0.133757152
     0.878733993  0.369224029  0.132549228
     0.884285303  0.130286766  0.378277145
     0.635768952  0.381688034  0.378557183
     0.496962833  0.001332335  0.496881003
     0.762397548  0.254386018  0.501072493
     0.739196819  0.005522164  0.746655737
     0.500085348  0.255588477  0.745947740
     0.630201355  0.132809000  0.619853441
     0.877957242  0.384806477  0.630496092
     0.859889895  0.119915600  0.886914751
     0.626755145  0.375053888  0.875066707
     0.504773192  0.504686370  0.993933447
     0.761512571  0.756229367  0.004412701
     0.758020006  0.505056929  0.246706272
     0.507520216  0.745311023  0.244979505
     0.628935107  0.628071804  0.121058491
     0.888354327  0.878012837  0.134280081
     0.882000969  0.629814593  0.376250641
     0.633859475  0.879977063  0.372710667
     0.506330484  0.511186149  0.505410500
     0.754619438  0.754121503  0.502275336
     0.749243728  0.505089808  0.754506168
     0.498559086  0.758082741  0.760730414
     0.625245165  0.637974649  0.624775614
     0.873652927  0.883712773  0.634962205
     0.876006160  0.620386007  0.886958328
     0.621191227  0.878929153  0.882463621

  ion indices of the primitive-cell ions
   primitive index   ion index
                 1           1
                 2           2
                 3           3
                 4           4
                 5           5
                 6           6
                 7           7
                 8           8
                 9           9
                10          10
                11          11
                12          12
                13          13
                14          14
                15          15
                16          16
                17          17
                18          18
                19          19
                20          20
                21          21
                22          22
                23          23
                24          24
                25          25
                26          26
                27          27
                28          28
                29          29
                30          30
                31          31
                32          32
                33          33
                34          34
                35          35
                36          36
                37          37
                38          38
                39          39
                40          40
                41          41
                42          42
                43          43
                44          44
                45          45
                46          46
                47          47
                48          48
                49          49
                50          50
                51          51
                52          52
                53          53
                54          54
                55          55
                56          56
                57          57
                58          58
                59          59
                60          60
                61          61
                62          62
                63          63
                64          64

----------------------------------------------------------------------------------------

 
 
 KPOINTS: K-Points                                

Automatic generation of k-mesh.
 Grid dimensions read from file:
 generate k-points for:    2    2    2

 Generating k-lattice:

  Cartesian coordinates                     Fractional coordinates (reciprocal lattice)
     0.045897828  0.000034089  0.000041910     0.500000000  0.000000000  0.000000000
     0.000000000  0.045898863 -0.000024334     0.000000000  0.500000000 -0.000000000
     0.000000000  0.000000000  0.045895127     0.000000000  0.000000000  0.500000000

  Length of vectors
     0.045897860  0.045898870  0.045895127

  Shift w.r.t. Gamma in fractional coordinates (k-lattice)
     0.500000000  0.500000000  0.500000000

 
 Subroutine IBZKPT returns following result:
 ===========================================
 
 Found      4 irreducible k-points:
 
 Following reciprocal coordinates:
            Coordinates               Weight
  0.250000  0.250000  0.250000      2.000000
  0.250000 -0.250000  0.250000      2.000000
 -0.250000  0.250000  0.250000      2.000000
 -0.250000 -0.250000  0.250000      2.000000
 
 Following cartesian coordinates:
            Coordinates               Weight
  0.022949  0.022966  0.022956      2.000000
  0.022949 -0.022932  0.022981      2.000000
 -0.022949  0.022932  0.022914      2.000000
 -0.022949 -0.022966  0.022939      2.000000
 


--------------------------------------------------------------------------------------------------------




 Dimension of arrays:
   k-points           NKPTS =      4   k-points in BZ     NKDIM =      4   number of bands    NBANDS=    161
   number of dos      NEDOS =    301   number of ions     NIONS =     64
   non local maximal  LDIM  =      4   non local SUM 2l+1 LMDIM =      8
   total plane-waves  NPLWV =  74088
   max r-space proj   IRMAX =    946   max aug-charges    IRDMAX=   2115
   dimension x,y,z NGX =    42 NGY =   42 NGZ =   42
   dimension x,y,z NGXF=    84 NGYF=   84 NGZF=   84
   support grid    NGXF=    84 NGYF=   84 NGZF=   84
   ions per type =              64
   NGX,Y,Z   is equivalent  to a cutoff of   6.41,  6.41,  6.41 a.u.
   NGXF,Y,Z  is equivalent  to a cutoff of  12.82, 12.82, 12.82 a.u.

 SYSTEM =  unknown system                          
 POSCAR =  Si                                      

 Startparameter for this run:
   NWRITE =      2    write-flag & timer
   PREC   = normal    normal or accurate (medium, high low for compatibility)
   ISTART =      1    job   : 0-new  1-cont  2-samecut
   ICHARG =      1    charge: 1-file 2-atom 10-const
   ISPIN  =      1    spin polarized calculation?
   LNONCOLLINEAR =      F non collinear calculations
   LSORBIT =      F    spin-orbit coupling
   INIWAV =      1    electr: 0-lowe 1-rand  2-diag
   LASPH  =      F    aspherical Exc in radial PAW
 Electronic Relaxation 1
   ENCUT  =  250.0 eV  18.37 Ry    4.29 a.u.  14.04 14.04 14.05*2*pi/ulx,y,z
   ENINI  =  250.0     initial cutoff
   ENAUG  =  322.1 eV  augmentation charge cutoff
   NELM   =     60;   NELMIN=  2; NELMDL=  0     # of ELM steps 
   EDIFF  = 0.1E-03   stopping-criterion for ELM
   LREAL  =      T    real-space projection
   NLSPLINE    = F    spline interpolate recip. space projectors
   LCOMPAT=      F    compatible to vasp.4.4
   GGA_COMPAT  = T    GGA compatible to vasp.4.4-vasp.4.6
   LMAXPAW     = -100 max onsite density
   LMAXMIX     =    2 max onsite mixed and CHGCAR
   VOSKOWN=      0    Vosko Wilk Nusair interpolation
   ROPT   =   -0.00050
 Ionic relaxation
   EDIFFG = 0.1E-02   stopping-criterion for IOM
   NSW    =      0    number of steps for IOM
   NBLOCK =      1;   KBLOCK =      1    inner block; outer block 
   IBRION =     -1    ionic relax: 0-MD 1-quasi-New 2-CG
   NFREE  =      0    steps in history (QN), initial steepest desc. (CG)
   ISIF   =      2    stress and relaxation
   IWAVPR =     10    prediction:  0-non 1-charg 2-wave 3-comb
   ISYM   =      2    0-nonsym 1-usesym 2-fastsym
   LCORR  =      T    Harris-Foulkes like correction to forces

   POTIM  = 0.5000    time-step for ionic-motion
   TEIN   =    0.0    initial temperature
   TEBEG  =    0.0;   TEEND  =   0.0 temperature during run
   SMASS  =  -3.00    Nose mass-parameter (am)
   estimated Nose-frequenzy (Omega)   =  0.10E-29 period in steps = 0.13E+47 mass=  -0.271E-26a.u.
   SCALEE = 1.0000    scale energy and forces
   NPACO  =    256;   APACO  = 10.0  distance and # of slots for P.C.
   PSTRESS=    0.0 pullay stress

  Mass of Ions in am
   POMASS =  28.09
  Ionic Valenz
   ZVAL   =   4.00
  Atomic Wigner-Seitz radii
   RWIGS  =  -1.00
  virtual crystal weights 
   VCA    =   1.00
   NELECT =     256.0000    total number of electrons
   NUPDOWN=      -1.0000    fix difference up-down

 DOS related values:
   EMIN   =  10.00;   EMAX   =-10.00  energy-range for DOS
   EFERMI =   0.00;   METHOD = LEGACY      
   ISMEAR =     0;   SIGMA  =   0.10  broadening in eV -4-tet -1-fermi 0-gaus

 Electronic relaxation 2 (details)
   IALGO  =     68    algorithm
   LDIAG  =      T    sub-space diagonalisation (order eigenvalues)
   LSUBROT=      F    optimize rotation matrix (better conditioning)
   TURBO    =      0    0=normal 1=particle mesh
   IRESTART =      0    0=no restart 2=restart with 2 vectors
   NREBOOT  =      0    no. of reboots
   NMIN     =      0    reboot dimension
   EREF     =   0.00    reference energy to select bands
   IMIX   =      4    mixing-type and parameters
     AMIX     =   0.40;   BMIX     =  1.00
     AMIX_MAG =   1.60;   BMIX_MAG =  1.00
     AMIN     =   0.10
     WC   =   100.;   INIMIX=   1;  MIXPRE=   1;  MAXMIX= -45

 Intra band minimization:
   WEIMIN = 0.0000     energy-eigenvalue tresh-hold
   EBREAK =  0.16E-06  absolut break condition
   DEPER  =   0.30     relativ break condition  

   TIME   =   0.40     timestep for ELM

  volume/ion in A,a.u.               =      20.20       136.32
  Fermi-wavevector in a.u.,A,eV,Ry     =   0.954198  1.803172 12.388013  0.910493
  Thomas-Fermi vector in A             =   2.082922
 
 Write flags
   LWAVE        =      T    write WAVECAR
   LDOWNSAMPLE  =      F    k-point downsampling of WAVECAR
   LCHARG       =      T    write CHGCAR
   LVTOT        =      F    write LOCPOT, total local potential
   LVHAR        =      F    write LOCPOT, Hartree potential only
   LELF         =      F    write electronic localiz. function (ELF)
   LORBIT       =      0    0 simple, 1 ext, 2 COOP (PROOUT), +10 PAW based schemes


 Dipole corrections
   LMONO  =      F    monopole corrections only (constant potential shift)
   LDIPOL =      F    correct potential (dipole corrections)
   IDIPOL =      0    1-x, 2-y, 3-z, 4-all directions 
   EPSILON=  1.0000000 bulk dielectric constant

 Exchange correlation treatment:
   GGA     =    --    GGA type
   LEXCH   =     8    internal setting for exchange type
   LIBXC   =     F    Libxc                    
   VOSKOWN =     0    Vosko Wilk Nusair interpolation
   LHFCALC =     F    Hartree Fock is set to
   LHFONE  =     F    Hartree Fock one center treatment
   AEXX    =    0.0000 exact exchange contribution

 Linear response parameters
   LEPSILON=     F    determine dielectric tensor
   LRPA    =     F    only Hartree local field effects (RPA)
   LNABLA  =     F    use nabla operator in PAW spheres
   LVEL    =     F    velocity operator in full k-point grid
   CSHIFT  =0.1000    complex shift for real part using Kramers Kronig
   OMEGAMAX=  -1.0    maximum frequency
   DEG_THRESHOLD= 0.2000000E-02 threshold for treating states as degnerate
   RTIME   =   -0.100 relaxation time in fs
  (WPLASMAI=    0.000 imaginary part of plasma frequency in eV, 0.658/RTIME)
   DFIELD  = 0.0000000 0.0000000 0.0000000 field for delta impulse in time
 
  Optional k-point grid parameters
   LKPOINTS_OPT  =     F    use optional k-point grid
   KPOINTS_OPT_MODE=     1    mode for optional k-point grid
 
 Orbital magnetization related:
   ORBITALMAG=     F  switch on orbital magnetization
   LCHIMAG   =     F  perturbation theory with respect to B field
   DQ        =  0.001000  dq finite difference perturbation B field
   LLRAUG    =     F  two centre corrections for induced B field
   LBONE     =     F  B-component reconstruction in AE one-centre
   LVGVCALC  =     T  calculate vGv susceptibility
   LVGVAPPL  =     F  apply vGv susceptibility instead of pGv for G=0

 Random number generation:
   RANDOM_GENERATOR = DEFAULT
   PCG_SEED         = not used


--------------------------------------------------------------------------------------------------------


 Static calculation
 charge density and potential will be updated during run
 non-spin polarized calculation
 RMM-DIIS sequential band-by-band and
  variant of blocked Davidson during initial phase
 perform sub-space diagonalisation
    before iterative eigenvector-optimisation
 modified Broyden-mixing scheme, WC =      100.0
 initial mixing is a Kerker type mixing with AMIX =  0.4000 and BMIX =      1.0000
 Hartree-type preconditioning will be used
 using additional bands           33
 real space projection scheme for non local part
 use partial core corrections
 calculate Harris-corrections to forces 
   (improved forces if not selfconsistent)
 use gradient corrections 
 use of overlap-Matrix (Vanderbilt PP)
 Gauss-broadening in eV      SIGMA  =   0.10


--------------------------------------------------------------------------------------------------------


  energy-cutoff  :      250.00
  volume of cell :     1292.85
      direct lattice vectors                 reciprocal lattice vectors
    10.893761580  0.000000000  0.000000000     0.091795657  0.000068178  0.000083820
    -0.008090790 10.893515920  0.000000000     0.000000000  0.091797727 -0.000048668
    -0.009952100  0.005775880 10.894402900     0.000000000  0.000000000  0.091790253

  length of vectors
    10.893761580 10.893518925 10.894408977     0.091795720  0.091797740  0.091790253


 
 old parameters found on file WAVECAR:
  energy-cutoff  :      250.00
  volume of cell :     1293.53
      direct lattice vectors                 reciprocal lattice vectors
    10.895809910  0.000000000  0.000000000     0.091778400  0.000068006  0.000081449
    -0.008073170 10.895279910  0.000000000     0.000000000  0.091782865 -0.000045819
    -0.009674020  0.005439560 10.896307440     0.000000000  0.000000000  0.091774209

  length of vectors

 
 k-points in units of 2pi/SCALE and weight: K-Points                                
   0.02294891  0.02296648  0.02295635       0.250
   0.02294891 -0.02293239  0.02298069       0.250
  -0.02294891  0.02293239  0.02291444       0.250
  -0.02294891 -0.02296648  0.02293878       0.250
 
 k-points in reciprocal lattice and weights: K-Points                                
   0.25000000  0.25000000  0.25000000       0.250
   0.25000000 -0.25000000  0.25000000       0.250
  -0.25000000  0.25000000  0.25000000       0.250
  -0.25000000 -0.25000000  0.25000000       0.250
 
 position of ions in fractional coordinates (direct lattice) 
   0.00118977  0.00193121  0.99818255
   0.25527507  0.25551305  0.00077580
   0.24637773  0.01009814  0.25239485
   0.01009689  0.25267582  0.25165897
   0.12554974  0.12543470  0.12069475
   0.38748360  0.37547592  0.12713760
   0.36606958  0.13432011  0.38512907
   0.13478097  0.37296536  0.37097983
   0.00584626  0.00013946  0.50631615
   0.24598781  0.25920760  0.51737288
   0.24722363  0.00299084  0.74763236
   0.99393606  0.25405529  0.76598545
   0.12157433  0.13899617  0.63873938
   0.38117871  0.38423319  0.62635305
   0.37444598  0.12769073  0.86787980
   0.12545057  0.37479079  0.88196050
   0.00294521  0.49660747  0.00826415
   0.24980791  0.74872376  0.00638798
   0.26016669  0.50174114  0.25552240
   0.01227489  0.74624325  0.26019009
   0.12903798  0.62310031  0.13376545
   0.37445490  0.87971347  0.13137995
   0.39273188  0.63176294  0.37539919
   0.13331347  0.87823786  0.38758880
   0.00507136  0.49888457  0.49601829
   0.26869891  0.75008345  0.50001262
   0.24949191  0.50301318  0.75242939
   0.00870936  0.74938640  0.74656063
   0.13535042  0.62849704  0.62241082
   0.38140181  0.88373752  0.62883690
   0.37752550  0.62097550  0.88045552
   0.12975569  0.87671623  0.87267123
   0.49629422  0.00191150  0.00424427
   0.74133056  0.25399288  0.00923913
   0.76373564  0.00256767  0.24732579
   0.50338522  0.25823977  0.26759880
   0.62018787  0.12853495  0.13375715
   0.87873399  0.36922403  0.13254923
   0.88428530  0.13028677  0.37827715
   0.63576895  0.38168803  0.37855718
   0.49696283  0.00133234  0.49688100
   0.76239755  0.25438602  0.50107249
   0.73919682  0.00552216  0.74665574
   0.50008535  0.25558848  0.74594774
   0.63020136  0.13280900  0.61985344
   0.87795724  0.38480648  0.63049609
   0.85988989  0.11991560  0.88691475
   0.62675514  0.37505389  0.87506671
   0.50477319  0.50468637  0.99393345
   0.76151257  0.75622937  0.00441270
   0.75802001  0.50505693  0.24670627
   0.50752022  0.74531102  0.24497951
   0.62893511  0.62807180  0.12105849
   0.88835433  0.87801284  0.13428008
   0.88200097  0.62981459  0.37625064
   0.63385947  0.87997706  0.37271067
   0.50633048  0.51118615  0.50541050
   0.75461944  0.75412150  0.50227534
   0.74924373  0.50508981  0.75450617
   0.49855909  0.75808274  0.76073041
   0.62524517  0.63797465  0.62477561
   0.87365293  0.88371277  0.63496221
   0.87600616  0.62038601  0.88695833
   0.62119123  0.87892915  0.88246362
 
 position of ions in cartesian coordinates  (Angst):
   0.00301142  0.02680304 10.87460283
   2.77883077  2.78343993  0.00845192
   2.68138665  0.11146203  2.74969119
   0.10544426  2.75398165  2.74167423
   1.36549293  1.36712198  1.31489721
   4.21685078  4.09098725  1.38508829
   3.98295514  1.46544272  4.19575125
   1.46156214  4.06504683  4.04160376
   0.05864770  0.00444361  5.51601211
   2.67248637  2.82667037  5.63646860
   2.68573058  0.03689898  8.14500817
  10.81802383  2.77197960  8.34495409
   1.31692033  1.51784624  6.95868410
   4.14312766  4.18926810  6.82374252
   4.06945493  1.39601381  9.45503216
   1.35481887  4.08788353  9.60843298
   0.02798417  5.40984916  0.09003296
   2.71522648  8.15627106  0.06959326
   2.82759143  5.46720091  2.78376403
   0.12509256  8.13071551  2.83461569
   1.39933638  6.78852579  1.45729472
   4.07079729  9.58393148  1.43130607
   4.26947994  6.88428793  4.08975004
   1.44132216  9.56933674  4.22254858
   0.04627334  5.43747196  5.40382305
   2.91609687  8.17393404  5.44733899
   2.70634736  5.48392806  8.19726897
   0.08138467  8.16776468  8.13333234
   1.46319582  6.85013744  6.78079426
   4.14149205  9.63064084  6.85080251
   4.09888617  6.76969188  9.59203713
   1.39774933  9.55556269  9.50723202
   5.40645323  0.02084742  0.04623882
   8.07373141  2.76692880  0.10065478
   8.31747175  0.02939952  2.69446681
   5.47900606  2.81468464  2.91532914
   6.75380773  1.40097014  1.45720431
   9.56841216  4.02291343  1.44404469
   9.62837448  1.42146584  4.12110363
   6.91905979  4.16011118  4.12415447
   5.40883883  0.01738374  5.41322184
   8.29833221  2.77405227  5.45888562
   8.04515844  0.06446838  8.13436843
   5.43831889  2.78856565  8.12665522
   6.85801994  1.45033716  6.75293312
   9.55486872  4.19553715  6.86887845
   9.35763862  1.31142521  9.66240664
   6.81597788  4.09070978  9.53332927
   5.48490377  5.50354985 10.82831143
   8.28957398  8.23802214  0.04807374
   8.25114766  5.50327064  2.68771752
   5.52033602  8.12047247  2.66890543
   6.84518272  6.84260941  1.31885997
   9.66908005  9.56542240  1.46290130
   9.59946809  6.86306847  4.09902607
   6.89428503  9.58819688  4.06046017
   5.50667778  5.57153364  5.50614562
   8.20954411  8.21793568  5.47198988
   8.15048704  5.50656180  8.21989419
   5.41747946  8.26258029  8.28770363
   6.79989221  6.95339562  6.80655726
   9.50389755  9.63040663  6.91753409
   9.52915574  6.76330781  9.66288138
   6.75121552  9.57972573  9.61391423
 


--------------------------------------------------------------------------------------------------------


 k-point   1 :   0.2500 0.2500 0.2500  plane waves:   11611
 k-point   2 :   0.2500-0.2500 0.2500  plane waves:   11611
 k-point   3 :  -0.2500 0.2500 0.2500  plane waves:   11605
 k-point   4 :  -0.2500-0.2500 0.2500  plane waves:   11608

 maximum and minimum number of plane-waves per node :       427      404

 maximum number of plane-waves:     11611
 maximum index in each direction: 
   IXMAX=   14   IYMAX=   14   IZMAX=   13
   IXMIN=  -14   IYMIN=  -14   IZMIN=  -14


 real space projection operators:
  total allocation   :       3480.19 KBytes
  max/ min on nodes  :        173.44         75.75


 parallel 3D FFT for wavefunctions:
    minimum data exchange during FFTs selected (reduces bandwidth)
 parallel 3D FFT for charge:
    minimum data exchange during FFTs selected (reduces bandwidth)


 total amount of memory used by VASP MPI-rank0    37836. kBytes
=======================================================================

   base      :      30000. kBytes
   nonlr-proj:       1196. kBytes
   fftplans  :        841. kBytes
   grid      :       1174. kBytes
   one-center:          9. kBytes
   wavefun   :       4616. kBytes
 
     INWAV:  cpu time     15.7736: real time     15.8098
 Broyden mixing: mesh for mixing (old mesh)
   NGX = 29   NGY = 29   NGZ = 29
  (NGX  = 84   NGY  = 84   NGZ  = 84)
  gives a total of  24389 points

 initial charge density was supplied:
 number of electron     255.9999971 magnetization 
 keeping initial charge density in first step


--------------------------------------------------------------------------------------------------------


 Maximum index for non-local projection operator          113
 Maximum index for augmentation-charges          186 (set IRDMAX)


--------------------------------------------------------------------------------------------------------


 First call to EWALD:  gamma=   0.163
 Maximum number of real-space cells 3x 3x 3
 Maximum number of reciprocal cells 3x 3x 3

    FEWALD:  cpu time      0.1382: real time      0.1385


--------------------------------------- Ionic step        1  -------------------------------------------




--------------------------------------- Iteration      1(   1)  ---------------------------------------


    POTLOK:  cpu time      0.2462: real time      0.7137
    SETDIJ:  cpu time      0.0156: real time      0.0157
     EDDAV:  cpu time     37.9673: real time     38.0550
       DOS:  cpu time      0.0134: real time      0.0134
    CHARGE:  cpu time      2.0364: real time      2.0409
    MIXING:  cpu time      0.1006: real time      0.1008
    --------------------------------------------
      LOOP:  cpu time     40.3795: real time     40.9395

 eigenvalue-minimisations  :  1536
 total energy-change (2. order) :-0.3362975E+03  (-0.4396875E+02)
 number of electron     255.9999968 magnetization 
 augmentation part      -14.6176570 magnetization 

 Broyden mixing:
  rms(total) = 0.38905E+00    rms(broyden)= 0.38905E+00
  rms(prec ) = 0.39188E+00
  weight for this iteration     100.00

 Free energy of the ion-electron system (eV)
  ---------------------------------------------------
  alpha Z        PSCENC =       106.65103675
  Ewald energy   TEWEN  =     -7290.21038216
  -Hartree energ DENC   =      -481.24553032
  -exchange      EXHF   =         0.00000000
  -V(xc)+E(xc)   XCENC  =      -576.15969599
  PAW double counting   =     31527.04750553   -30408.12610662
  entropy T*S    EENTRO =        -0.00000000
  eigenvalues    EBANDS =       189.79370513
  atomic energy  EATOM  =      6595.95197522
  Solvation  Ediel_sol  =         0.00000000
  ---------------------------------------------------
  free energy    TOTEN  =      -336.29749245 eV

  energy without entropy =     -336.29749245  energy(sigma->0) =     -336.29749245


--------------------------------------------------------------------------------------------------------




--------------------------------------- Iteration      1(   2)  ---------------------------------------


    POTLOK:  cpu time      0.0454: real time      0.0469
    SETDIJ:  cpu time      0.0019: real time      0.0019
    EDDIAG:  cpu time      9.1202: real time      9.1406
  RMM-DIIS:  cpu time     20.0314: real time     20.0762
    ORTHCH:  cpu time      0.3383: real time      0.3391
       DOS:  cpu time      0.0709: real time      0.0711
    CHARGE:  cpu time      1.2831: real time      1.2860
    MIXING:  cpu time      0.0641: real time      0.0642
    --------------------------------------------
      LOOP:  cpu time     30.9552: real time     31.0260

 eigenvalue-minimisations  :  1379
 total energy-change (2. order) :-0.7184437E+01  (-0.7192197E+01)
 number of electron     255.9999968 magnetization 
 augmentation part      -14.6613940 magnetization 

 Broyden mixing:
  rms(total) = 0.66934E-01    rms(broyden)= 0.66932E-01
  rms(prec ) = 0.69170E-01
  weight for this iteration     100.00

 eigenvalues of (default mixing * dielectric matrix)
  average eigenvalue GAMMA=   0.8779
  0.8779

 Free energy of the ion-electron system (eV)
  ---------------------------------------------------
  alpha Z        PSCENC =       106.65103675
  Ewald energy   TEWEN  =     -7290.21038216
  -Hartree energ DENC   =      -480.13752685
  -exchange      EXHF   =         0.00000000
  -V(xc)+E(xc)   XCENC  =      -576.21536655
  PAW double counting   =     33119.61686138   -32000.57968099
  entropy T*S    EENTRO =        -0.00000000
  eigenvalues    EBANDS =       181.44115351
  atomic energy  EATOM  =      6595.95197522
  Solvation  Ediel_sol  =         0.00000000
  ---------------------------------------------------
  free energy    TOTEN  =      -343.48192969 eV

  energy without entropy =     -343.48192969  energy(sigma->0) =     -343.48192969


--------------------------------------------------------------------------------------------------------




--------------------------------------- Iteration      1(   3)  ---------------------------------------


    POTLOK:  cpu time      0.0779: real time      0.0781
    SETDIJ:  cpu time      0.0019: real time      0.0019
    EDDIAG:  cpu time      5.4177: real time      5.4300
  RMM-DIIS:  cpu time     26.4380: real time     26.4974
    ORTHCH:  cpu time      0.0754: real time      0.0756
       DOS:  cpu time      0.0645: real time      0.0647
    CHARGE:  cpu time      1.7179: real time      1.7218
    MIXING:  cpu time      0.0003: real time      0.0003
    --------------------------------------------
      LOOP:  cpu time     33.7935: real time     33.8699

 eigenvalue-minimisations  :  1529
 total energy-change (2. order) :-0.1085186E+01  (-0.1210462E+01)
 number of electron     255.9999968 magnetization 
 augmentation part      -14.6573299 magnetization 

 Broyden mixing:
  rms(total) = 0.10035E+00    rms(broyden)= 0.10035E+00
  rms(prec ) = 0.10122E+00
  weight for this iteration     100.00

 eigenvalues of (default mixing * dielectric matrix)
  average eigenvalue GAMMA=   0.8602
  0.8602  0.8602

 Free energy of the ion-electron system (eV)
  ---------------------------------------------------
  alpha Z        PSCENC =       106.65103675
  Ewald energy   TEWEN  =     -7290.21038216
  -Hartree energ DENC   =      -480.24224322
  -exchange      EXHF   =         0.00000000
  -V(xc)+E(xc)   XCENC  =      -576.19908459
  PAW double counting   =     33032.27524498   -31913.26891856
  entropy T*S    EENTRO =        -0.00000000
  eigenvalues    EBANDS =       180.47525604
  atomic energy  EATOM  =      6595.95197522
  Solvation  Ediel_sol  =         0.00000000
  ---------------------------------------------------
  free energy    TOTEN  =      -344.56711554 eV

  energy without entropy =     -344.56711554  energy(sigma->0) =     -344.56711554


--------------------------------------------------------------------------------------------------------




--------------------------------------- Iteration      1(   4)  ---------------------------------------


    POTLOK:  cpu time      0.0707: real time      0.1998
    SETDIJ:  cpu time      0.0019: real time      0.0019
    EDDIAG:  cpu time      6.5388: real time      6.5537
  RMM-DIIS:  cpu time     26.2581: real time     26.3174
    ORTHCH:  cpu time      0.3592: real time      0.3600
       DOS:  cpu time      0.1048: real time      0.1050
    CHARGE:  cpu time      1.7638: real time      1.7678
    MIXING:  cpu time      0.2944: real time      0.2951
    --------------------------------------------
      LOOP:  cpu time     35.3916: real time     35.6007

 eigenvalue-minimisations  :  1623
 total energy-change (2. order) :-0.2323033E+00  (-0.2308196E+00)
 number of electron     255.9999968 magnetization 
 augmentation part      -14.6577913 magnetization 

 Broyden mixing:
  rms(total) = 0.94511E-01    rms(broyden)= 0.94511E-01
  rms(prec ) = 0.95443E-01
  weight for this iteration     100.00

 eigenvalues of (default mixing * dielectric matrix)
  average eigenvalue GAMMA=   0.9947
  0.7343  1.1249  1.1249

 Free energy of the ion-electron system (eV)
  ---------------------------------------------------
  alpha Z        PSCENC =       106.65103675
  Ewald energy   TEWEN  =     -7290.21038216
  -Hartree energ DENC   =      -480.39494287
  -exchange      EXHF   =         0.00000000
  -V(xc)+E(xc)   XCENC  =      -576.19121542
  PAW double counting   =     32705.63251405   -31586.65513506
  entropy T*S    EENTRO =        -0.00000000
  eigenvalues    EBANDS =       180.41673060
  atomic energy  EATOM  =      6595.95197522
  Solvation  Ediel_sol  =         0.00000000
  ---------------------------------------------------
  free energy    TOTEN  =      -344.79941889 eV

  energy without entropy =     -344.79941889  energy(sigma->0) =     -344.79941889


--------------------------------------------------------------------------------------------------------




--------------------------------------- Iteration      1(   5)  ---------------------------------------


    POTLOK:  cpu time      0.1928: real time      0.1933
    SETDIJ:  cpu time      0.1354: real time      0.1357
    EDDIAG:  cpu time      6.3835: real time      6.3980
  RMM-DIIS:  cpu time     29.5535: real time     29.6200
    ORTHCH:  cpu time      0.1989: real time      0.1994
       DOS:  cpu time      0.0397: real time      0.0398
    CHARGE:  cpu time      1.4266: real time      1.4299
    MIXING:  cpu time      0.0003: real time      0.0003
    --------------------------------------------
      LOOP:  cpu time     37.9308: real time     38.0163

 eigenvalue-minimisations  :  1587
 total energy-change (2. order) :-0.4550498E-01  (-0.4574325E-01)
 number of electron     255.9999968 magnetization 
 augmentation part      -14.6534790 magnetization 

 Broyden mixing:
  rms(total) = 0.69823E-01    rms(broyden)= 0.69822E-01
  rms(prec ) = 0.70379E-01
  weight for this iteration     100.00

 eigenvalues of (default mixing * dielectric matrix)
  average eigenvalue GAMMA=   1.3220
  1.8181  1.8181  0.8259  0.8259

 Free energy of the ion-electron system (eV)
  ---------------------------------------------------
  alpha Z        PSCENC =       106.65103675
  Ewald energy   TEWEN  =     -7290.21038216
  -Hartree energ DENC   =      -480.61838610
  -exchange      EXHF   =         0.00000000
  -V(xc)+E(xc)   XCENC  =      -576.17948546
  PAW double counting   =     32350.51722771   -31231.56862327
  entropy T*S    EENTRO =        -0.00000000
  eigenvalues    EBANDS =       180.61171345
  atomic energy  EATOM  =      6595.95197522
  Solvation  Ediel_sol  =         0.00000000
  ---------------------------------------------------
  free energy    TOTEN  =      -344.84492386 eV

  energy without entropy =     -344.84492386  energy(sigma->0) =     -344.84492386


--------------------------------------------------------------------------------------------------------




--------------------------------------- Iteration      1(   6)  ---------------------------------------


    POTLOK:  cpu time      0.0454: real time      0.0467
    SETDIJ:  cpu time      0.0018: real time      0.0018
    EDDIAG:  cpu time      3.2822: real time      3.2899
  RMM-DIIS:  cpu time     26.4936: real time     26.5532
    ORTHCH:  cpu time      0.2774: real time      0.2780
       DOS:  cpu time      0.1347: real time      0.1350
    CHARGE:  cpu time      2.3687: real time      2.3740
    MIXING:  cpu time      0.3711: real time      0.3719
    --------------------------------------------
      LOOP:  cpu time     32.9749: real time     33.0506

 eigenvalue-minimisations  :  1570
 total energy-change (2. order) :-0.9140891E-02  (-0.9439673E-02)
 number of electron     255.9999968 magnetization 
 augmentation part      -14.6497875 magnetization 

 Broyden mixing:
  rms(total) = 0.89241E-02    rms(broyden)= 0.89240E-02
  rms(prec ) = 0.94025E-02
  weight for this iteration     100.00

 eigenvalues of (default mixing * dielectric matrix)
  average eigenvalue GAMMA=   1.2483
  2.0903  1.1376  1.1376  1.1483  0.7277

 Free energy of the ion-electron system (eV)
  ---------------------------------------------------
  alpha Z        PSCENC =       106.65103675
  Ewald energy   TEWEN  =     -7290.21038216
  -Hartree energ DENC   =      -481.06408402
  -exchange      EXHF   =         0.00000000
  -V(xc)+E(xc)   XCENC  =      -576.15389665
  PAW double counting   =     31612.76673890   -30493.87303856
  entropy T*S    EENTRO =        -0.00000000
  eigenvalues    EBANDS =       181.07758576
  atomic energy  EATOM  =      6595.95197522
  Solvation  Ediel_sol  =         0.00000000
  ---------------------------------------------------
  free energy    TOTEN  =      -344.85406475 eV

  energy without entropy =     -344.85406475  energy(sigma->0) =     -344.85406475


--------------------------------------------------------------------------------------------------------




--------------------------------------- Iteration      1(   7)  ---------------------------------------


    POTLOK:  cpu time      0.6386: real time      0.6401
    SETDIJ:  cpu time      0.1306: real time      0.1309
    EDDIAG:  cpu time      5.4149: real time      5.4268
  RMM-DIIS:  cpu time     30.2639: real time     30.3317
    ORTHCH:  cpu time      0.1416: real time      0.1419
       DOS:  cpu time      0.0342: real time      0.0343
    CHARGE:  cpu time      3.4276: real time      3.4354
    MIXING:  cpu time      0.0004: real time      0.0004
    --------------------------------------------
      LOOP:  cpu time     40.0519: real time     40.1416

 eigenvalue-minimisations  :  1397
 total energy-change (2. order) :-0.2007930E-02  (-0.1980848E-02)
 number of electron     255.9999968 magnetization 
 augmentation part      -14.6487493 magnetization 

 Broyden mixing:
  rms(total) = 0.13374E-01    rms(broyden)= 0.13374E-01
  rms(prec ) = 0.13760E-01
  weight for this iteration     100.00

 eigenvalues of (default mixing * dielectric matrix)
  average eigenvalue GAMMA=   1.3035
  2.2200  1.4685  1.4685  1.0894  0.7874  0.7874

 Free energy of the ion-electron system (eV)
  ---------------------------------------------------
  alpha Z        PSCENC =       106.65103675
  Ewald energy   TEWEN  =     -7290.21038216
  -Hartree energ DENC   =      -481.12451823
  -exchange      EXHF   =         0.00000000
  -V(xc)+E(xc)   XCENC  =      -576.15031227
  PAW double counting   =     31451.34476580   -30332.46425653
  entropy T*S    EENTRO =        -0.00000000
  eigenvalues    EBANDS =       181.14561873
  atomic energy  EATOM  =      6595.95197522
  Solvation  Ediel_sol  =         0.00000000
  ---------------------------------------------------
  free energy    TOTEN  =      -344.85607268 eV

  energy without entropy =     -344.85607268  energy(sigma->0) =     -344.85607268


--------------------------------------------------------------------------------------------------------




--------------------------------------- Iteration      1(   8)  ---------------------------------------


    POTLOK:  cpu time      0.0451: real time      0.0464
    SETDIJ:  cpu time      0.0019: real time      0.0019
    EDDIAG:  cpu time      5.8313: real time      5.8447
  RMM-DIIS:  cpu time     23.2868: real time     23.3394
    ORTHCH:  cpu time      0.4888: real time      0.4900
       DOS:  cpu time      0.1158: real time      0.1160
    CHARGE:  cpu time      1.5134: real time      1.5168
    MIXING:  cpu time      0.1898: real time      0.1903
    --------------------------------------------
      LOOP:  cpu time     31.4728: real time     31.5455

 eigenvalue-minimisations  :  1148
 total energy-change (2. order) :-0.3105218E-03  (-0.3705601E-03)
 number of electron     255.9999968 magnetization 
 augmentation part      -14.6491779 magnetization 

 Broyden mixing:
  rms(total) = 0.30467E-02    rms(broyden)= 0.30467E-02
  rms(prec ) = 0.32004E-02
  weight for this iteration     100.00

 eigenvalues of (default mixing * dielectric matrix)
  average eigenvalue GAMMA=   1.3640
  2.5251  1.7103  1.7103  0.9511  0.9511  0.9570  0.7433

 Free energy of the ion-electron system (eV)
  ---------------------------------------------------
  alpha Z        PSCENC =       106.65103675
  Ewald energy   TEWEN  =     -7290.21038216
  -Hartree energ DENC   =      -480.98747108
  -exchange      EXHF   =         0.00000000
  -V(xc)+E(xc)   XCENC  =      -576.15700960
  PAW double counting   =     31632.58879867   -30513.69527841
  entropy T*S    EENTRO =        -0.00000000
  eigenvalues    EBANDS =       181.00194741
  atomic energy  EATOM  =      6595.95197522
  Solvation  Ediel_sol  =         0.00000000
  ---------------------------------------------------
  free energy    TOTEN  =      -344.85638321 eV

  energy without entropy =     -344.85638321  energy(sigma->0) =     -344.85638321


--------------------------------------------------------------------------------------------------------




--------------------------------------- Iteration      1(   9)  ---------------------------------------


    POTLOK:  cpu time      0.0425: real time      0.0426
    SETDIJ:  cpu time      0.0343: real time      0.0344
    EDDIAG:  cpu time      8.7297: real time      8.7494
  RMM-DIIS:  cpu time     13.2489: real time     13.2785
    ORTHCH:  cpu time      0.1410: real time      0.1413
       DOS:  cpu time      0.0348: real time      0.0348
    --------------------------------------------
      LOOP:  cpu time     22.2311: real time     22.2811

 eigenvalue-minimisations  :  1016
 total energy-change (2. order) :-0.6547729E-04  (-0.6615590E-04)
 number of electron     255.9999968 magnetization 
 augmentation part      -14.6491779 magnetization 

 Free energy of the ion-electron system (eV)
  ---------------------------------------------------
  alpha Z        PSCENC =       106.65103675
  Ewald energy   TEWEN  =     -7290.21038216
  -Hartree energ DENC   =      -480.96042404
  -exchange      EXHF   =         0.00000000
  -V(xc)+E(xc)   XCENC  =      -576.15754727
  PAW double counting   =     31656.69259463   -30537.79645888
  entropy T*S    EENTRO =        -0.00000000
  eigenvalues    EBANDS =       180.97275706
  atomic energy  EATOM  =      6595.95197522
  Solvation  Ediel_sol  =         0.00000000
  ---------------------------------------------------
  free energy    TOTEN  =      -344.85644868 eV

  energy without entropy =     -344.85644868  energy(sigma->0) =     -344.85644868


--------------------------------------------------------------------------------------------------------




 average (electrostatic) potential at core
  the test charge radii are     0.9892
  (the norm of the test charge is              1.0000)
       1 -83.3824       2 -83.3599       3 -83.3930       4 -83.3465       5 -83.3533
       6 -83.3823       7 -83.3914       8 -83.3815       9 -83.3689      10 -83.3818
      11 -83.3110      12 -83.3589      13 -83.3538      14 -83.3875      15 -83.3541
      16 -83.3315      17 -83.3316      18 -83.3778      19 -83.3738      20 -83.3397
      21 -83.3604      22 -83.3735      23 -83.3473      24 -83.3893      25 -83.3685
      26 -83.3559      27 -83.3627      28 -83.3797      29 -83.3898      30 -83.3307
      31 -83.3511      32 -83.3617      33 -83.3549      34 -83.3757      35 -83.3572
      36 -83.3832      37 -83.3614      38 -83.3548      39 -83.3422      40 -83.3737
      41 -83.3805      42 -83.3554      43 -83.3667      44 -83.3858      45 -83.3544
      46 -83.3640      47 -83.4037      48 -83.3465      49 -83.3265      50 -83.3784
      51 -83.3748      52 -83.3410      53 -83.3505      54 -83.3512      55 -83.3348
      56 -83.3659      57 -83.3725      58 -83.3284      59 -83.3614      60 -83.3582
      61 -83.3645      62 -83.3559      63 -83.3858      64 -83.3562
 
 
 
 E-fermi :   5.9841     XC(G=0):  -9.3796     alpha+bet :-11.8730

 Fermi energy:         5.9840949724

 k-point     1 :       0.2500    0.2500    0.2500
  band No.  band energies     occupation 
      1      -5.9725      2.00000
      2      -5.4918      2.00000
      3      -5.4542      2.00000
      4      -5.3618      2.00000
      5      -4.9843      2.00000
      6      -4.9558      2.00000
      7      -4.8566      2.00000
      8      -4.5080      2.00000
      9      -4.4423      2.00000
     10      -4.4207      2.00000
     11      -4.3164      2.00000
     12      -4.0389      2.00000
     13      -4.0303      2.00000
     14      -3.9838      2.00000
     15      -3.9439      2.00000
     16      -3.9139      2.00000
     17      -3.9029      2.00000
     18      -3.7653      2.00000
     19      -3.7595      2.00000
     20      -3.7290      2.00000
     21      -3.3293      2.00000
     22      -3.2979      2.00000
     23      -3.2006      2.00000
     24      -2.9191      2.00000
     25      -2.9135      2.00000
     26      -2.8809      2.00000
     27      -2.7755      2.00000
     28      -2.7655      2.00000
     29      -2.7129      2.00000
     30      -2.6830      2.00000
     31      -2.6607      2.00000
     32      -2.6425      2.00000
     33      -1.2460      2.00000
     34      -1.2224      2.00000
     35      -1.2077      2.00000
     36      -1.1788      2.00000
     37      -1.1539      2.00000
     38      -1.1362      2.00000
     39      -1.1195      2.00000
     40      -1.0964      2.00000
     41      -1.0641      2.00000
     42      -0.9700      2.00000
     43      -0.9476      2.00000
     44      -0.9175      2.00000
     45      -0.8959      2.00000
     46      -0.8195      2.00000
     47      -0.7692      2.00000
     48      -0.1772      2.00000
     49      -0.1363      2.00000
     50      -0.1265      2.00000
     51      -0.0788      2.00000
     52      -0.0570      2.00000
     53      -0.0443      2.00000
     54      -0.0222      2.00000
     55       0.7735      2.00000
     56       0.8470      2.00000
     57       0.8705      2.00000
     58       1.0977      2.00000
     59       1.1266      2.00000
     60       1.1622      2.00000
     61       1.6533      2.00000
     62       1.6780      2.00000
     63       1.6934      2.00000
     64       1.7104      2.00000
     65       1.7466      2.00000
     66       1.7507      2.00000
     67       1.7664      2.00000
     68       1.7822      2.00000
     69       1.8141      2.00000
     70       2.3176      2.00000
     71       2.3252      2.00000
     72       2.3403      2.00000
     73       2.3549      2.00000
     74       2.3932      2.00000
     75       2.4100      2.00000
     76       2.4350      2.00000
     77       2.4604      2.00000
     78       2.4818      2.00000
     79       2.5095      2.00000
     80       2.5281      2.00000
     81       2.5768      2.00000
     82       2.7609      2.00000
     83       2.7852      2.00000
     84       2.7956      2.00000
     85       2.8203      2.00000
     86       2.8543      2.00000
     87       2.8840      2.00000
     88       3.0344      2.00000
     89       3.0513      2.00000
     90       3.0767      2.00000
     91       3.0933      2.00000
     92       3.1166      2.00000
     93       3.1556      2.00000
     94       3.3939      2.00000
     95       3.4285      2.00000
     96       3.4816      2.00000
     97       3.4925      2.00000
     98       3.5033      2.00000
     99       3.5355      2.00000
    100       3.5520      2.00000
    101       3.5730      2.00000
    102       3.5884      2.00000
    103       3.7744      2.00000
    104       3.8198      2.00000
    105       3.8331      2.00000
    106       3.8654      2.00000
    107       3.8813      2.00000
    108       3.8967      2.00000
    109       3.9072      2.00000
    110       3.9232      2.00000
    111       3.9364      2.00000
    112       4.1297      2.00000
    113       4.1896      2.00000
    114       4.2241      2.00000
    115       4.2710      2.00000
    116       4.4046      2.00000
    117       4.4394      2.00000
    118       4.4694      2.00000
    119       4.4956      2.00000
    120       4.5716      2.00000
    121       4.6125      2.00000
    122       4.6524      2.00000
    123       4.6888      2.00000
    124       4.9448      2.00000
    125       5.0000      2.00000
    126       5.0373      2.00000
    127       5.4511      2.00000
    128       5.4818      2.00000
    129       6.6075      0.00000
    130       6.6242      0.00000
    131       6.6501      0.00000
    132       7.0425      0.00000
    133       7.0817      0.00000
    134       7.1169      0.00000
    135       7.3332      0.00000
    136       7.5295      0.00000
    137       7.5494      0.00000
    138       7.5810      0.00000
    139       7.6626      0.00000
    140       7.6938      0.00000
    141       7.7088      0.00000
    142       7.8133      0.00000
    143       7.8398      0.00000
    144       7.8661      0.00000
    145       7.9041      0.00000
    146       7.9130      0.00000
    147       7.9731      0.00000
    148       8.0605      0.00000
    149       8.1119      0.00000
    150       8.1348      0.00000
    151       8.1624      0.00000
    152       8.1745      0.00000
    153       8.1964      0.00000
    154       8.2329      0.00000
    155       8.3926      0.00000
    156       8.4080      0.00000
    157       8.4417      0.00000
    158       8.4536      0.00000
    159       8.5407      0.00000
    160       8.5796      0.00000
    161       8.5955      0.00000

 k-point     2 :       0.2500   -0.2500    0.2500
  band No.  band energies     occupation 
      1      -5.9720      2.00000
      2      -5.4931      2.00000
      3      -5.4521      2.00000
      4      -5.3667      2.00000
      5      -4.9838      2.00000
      6      -4.9534      2.00000
      7      -4.8578      2.00000
      8      -4.4941      2.00000
      9      -4.4445      2.00000
     10      -4.4104      2.00000
     11      -4.3174      2.00000
     12      -4.0515      2.00000
     13      -4.0118      2.00000
     14      -3.9987      2.00000
     15      -3.9809      2.00000
     16      -3.9177      2.00000
     17      -3.8991      2.00000
     18      -3.7813      2.00000
     19      -3.7405      2.00000
     20      -3.7239      2.00000
     21      -3.3112      2.00000
     22      -3.2890      2.00000
     23      -3.1874      2.00000
     24      -2.9366      2.00000
     25      -2.9081      2.00000
     26      -2.8881      2.00000
     27      -2.7958      2.00000
     28      -2.7462      2.00000
     29      -2.7091      2.00000
     30      -2.6904      2.00000
     31      -2.6685      2.00000
     32      -2.6316      2.00000
     33      -1.2679      2.00000
     34      -1.2325      2.00000
     35      -1.2038      2.00000
     36      -1.1785      2.00000
     37      -1.1507      2.00000
     38      -1.1351      2.00000
     39      -1.1109      2.00000
     40      -1.0765      2.00000
     41      -1.0210      2.00000
     42      -0.9804      2.00000
     43      -0.9332      2.00000
     44      -0.9091      2.00000
     45      -0.8931      2.00000
     46      -0.8633      2.00000
     47      -0.8069      2.00000
     48      -0.1938      2.00000
     49      -0.1331      2.00000
     50      -0.1108      2.00000
     51      -0.0867      2.00000
     52      -0.0722      2.00000
     53      -0.0225      2.00000
     54       0.0158      2.00000
     55       0.7614      2.00000
     56       0.8062      2.00000
     57       0.8537      2.00000
     58       1.1038      2.00000
     59       1.1366      2.00000
     60       1.1617      2.00000
     61       1.6638      2.00000
     62       1.6890      2.00000
     63       1.7044      2.00000
     64       1.7190      2.00000
     65       1.7296      2.00000
     66       1.7612      2.00000
     67       1.7718      2.00000
     68       1.7891      2.00000
     69       1.8128      2.00000
     70       2.2888      2.00000
     71       2.3093      2.00000
     72       2.3243      2.00000
     73       2.3774      2.00000
     74       2.3952      2.00000
     75       2.4148      2.00000
     76       2.4436      2.00000
     77       2.4532      2.00000
     78       2.4751      2.00000
     79       2.5322      2.00000
     80       2.5642      2.00000
     81       2.5752      2.00000
     82       2.7596      2.00000
     83       2.7837      2.00000
     84       2.8042      2.00000
     85       2.8107      2.00000
     86       2.8530      2.00000
     87       2.9054      2.00000
     88       3.0408      2.00000
     89       3.0756      2.00000
     90       3.0983      2.00000
     91       3.1131      2.00000
     92       3.1358      2.00000
     93       3.1481      2.00000
     94       3.3950      2.00000
     95       3.4085      2.00000
     96       3.4530      2.00000
     97       3.4804      2.00000
     98       3.4932      2.00000
     99       3.5148      2.00000
    100       3.5354      2.00000
    101       3.5697      2.00000
    102       3.6046      2.00000
    103       3.7621      2.00000
    104       3.7953      2.00000
    105       3.8201      2.00000
    106       3.8320      2.00000
    107       3.8587      2.00000
    108       3.8824      2.00000
    109       3.8875      2.00000
    110       3.9147      2.00000
    111       3.9493      2.00000
    112       4.1280      2.00000
    113       4.2128      2.00000
    114       4.2345      2.00000
    115       4.2622      2.00000
    116       4.4185      2.00000
    117       4.4393      2.00000
    118       4.4749      2.00000
    119       4.4932      2.00000
    120       4.5380      2.00000
    121       4.5835      2.00000
    122       4.6518      2.00000
    123       4.7165      2.00000
    124       4.9566      2.00000
    125       5.0112      2.00000
    126       5.0587      2.00000
    127       5.4563      2.00000
    128       5.5204      2.00000
    129       6.6366      0.00000
    130       6.6486      0.00000
    131       6.6631      0.00000
    132       7.0641      0.00000
    133       7.0900      0.00000
    134       7.1352      0.00000
    135       7.3493      0.00000
    136       7.5492      0.00000
    137       7.6040      0.00000
    138       7.6250      0.00000
    139       7.6589      0.00000
    140       7.6589      0.00000
    141       7.7035      0.00000
    142       7.8313      0.00000
    143       7.8601      0.00000
    144       7.8860      0.00000
    145       7.8983      0.00000
    146       7.9294      0.00000
    147       7.9534      0.00000
    148       8.0839      0.00000
    149       8.1062      0.00000
    150       8.1808      0.00000
    151       8.3606      0.00000
    152       8.4144      0.00000
    153       8.5390      0.00000
    154       8.6638      0.00000
    155       9.1688      0.00000
    156       9.2274      0.00000
    157       9.2493      0.00000
    158       9.2654      0.00000
    159       9.3364      0.00000
    160       9.5373      0.00000
    161      10.0217      0.00000

 k-point     3 :      -0.2500    0.2500    0.2500
  band No.  band energies     occupation 
      1      -5.9730      2.00000
      2      -5.4827      2.00000
      3      -5.4419      2.00000
      4      -5.3904      2.00000
      5      -4.9772      2.00000
      6      -4.9371      2.00000
      7      -4.8814      2.00000
      8      -4.4941      2.00000
      9      -4.4410      2.00000
     10      -4.3983      2.00000
     11      -4.3378      2.00000
     12      -4.0486      2.00000
     13      -3.9944      2.00000
     14      -3.9857      2.00000
     15      -3.9611      2.00000
     16      -3.9429      2.00000
     17      -3.9066      2.00000
     18      -3.7855      2.00000
     19      -3.7513      2.00000
     20      -3.7226      2.00000
     21      -3.3221      2.00000
     22      -3.2575      2.00000
     23      -3.2094      2.00000
     24      -2.9463      2.00000
     25      -2.9051      2.00000
     26      -2.8680      2.00000
     27      -2.7795      2.00000
     28      -2.7586      2.00000
     29      -2.7159      2.00000
     30      -2.6853      2.00000
     31      -2.6679      2.00000
     32      -2.6461      2.00000
     33      -1.2559      2.00000
     34      -1.2443      2.00000
     35      -1.1952      2.00000
     36      -1.1869      2.00000
     37      -1.1644      2.00000
     38      -1.1453      2.00000
     39      -1.0967      2.00000
     40      -1.0474      2.00000
     41      -1.0119      2.00000
     42      -0.9686      2.00000
     43      -0.9415      2.00000
     44      -0.9324      2.00000
     45      -0.8936      2.00000
     46      -0.8624      2.00000
     47      -0.8171      2.00000
     48      -0.1963      2.00000
     49      -0.1451      2.00000
     50      -0.1115      2.00000
     51      -0.0796      2.00000
     52      -0.0456      2.00000
     53      -0.0277      2.00000
     54       0.0171      2.00000
     55       0.7753      2.00000
     56       0.7860      2.00000
     57       0.8392      2.00000
     58       1.1045      2.00000
     59       1.1262      2.00000
     60       1.1581      2.00000
     61       1.6498      2.00000
     62       1.6844      2.00000
     63       1.7004      2.00000
     64       1.7143      2.00000
     65       1.7391      2.00000
     66       1.7597      2.00000
     67       1.7738      2.00000
     68       1.8117      2.00000
     69       1.8218      2.00000
     70       2.2877      2.00000
     71       2.2955      2.00000
     72       2.3292      2.00000
     73       2.3741      2.00000
     74       2.4062      2.00000
     75       2.4197      2.00000
     76       2.4468      2.00000
     77       2.4673      2.00000
     78       2.5046      2.00000
     79       2.5265      2.00000
     80       2.5809      2.00000
     81       2.6081      2.00000
     82       2.7594      2.00000
     83       2.7816      2.00000
     84       2.8067      2.00000
     85       2.8250      2.00000
     86       2.8451      2.00000
     87       2.8687      2.00000
     88       3.0458      2.00000
     89       3.0776      2.00000
     90       3.0943      2.00000
     91       3.1112      2.00000
     92       3.1307      2.00000
     93       3.1419      2.00000
     94       3.3704      2.00000
     95       3.3880      2.00000
     96       3.4316      2.00000
     97       3.4707      2.00000
     98       3.4933      2.00000
     99       3.5273      2.00000
    100       3.5435      2.00000
    101       3.5728      2.00000
    102       3.6025      2.00000
    103       3.7521      2.00000
    104       3.8057      2.00000
    105       3.8195      2.00000
    106       3.8362      2.00000
    107       3.8558      2.00000
    108       3.8753      2.00000
    109       3.8933      2.00000
    110       3.9154      2.00000
    111       3.9437      2.00000
    112       4.1011      2.00000
    113       4.2176      2.00000
    114       4.2313      2.00000
    115       4.2466      2.00000
    116       4.4306      2.00000
    117       4.4390      2.00000
    118       4.4668      2.00000
    119       4.5050      2.00000
    120       4.5223      2.00000
    121       4.5570      2.00000
    122       4.6750      2.00000
    123       4.7118      2.00000
    124       4.9823      2.00000
    125       5.0157      2.00000
    126       5.0829      2.00000
    127       5.4820      2.00000
    128       5.5209      2.00000
    129       6.6220      0.00000
    130       6.6489      0.00000
    131       6.6638      0.00000
    132       7.0539      0.00000
    133       7.1061      0.00000
    134       7.1508      0.00000
    135       7.3589      0.00000
    136       7.5381      0.00000
    137       7.5832      0.00000
    138       7.6067      0.00000
    139       7.6635      0.00000
    140       7.6666      0.00000
    141       7.7024      0.00000
    142       7.8185      0.00000
    143       7.8635      0.00000
    144       7.8814      0.00000
    145       7.9115      0.00000
    146       7.9298      0.00000
    147       7.9704      0.00000
    148       8.0697      0.00000
    149       8.1400      0.00000
    150       8.1816      0.00000
    151       8.3989      0.00000
    152       8.4825      0.00000
    153       8.5622      0.00000
    154       8.6278      0.00000
    155       8.7282      0.00000
    156       9.0040      0.00000
    157       9.2278      0.00000
    158       9.2420      0.00000
    159       9.2769      0.00000
    160       9.8165      0.00000
    161       9.9372      0.00000

 k-point     4 :      -0.2500   -0.2500    0.2500
  band No.  band energies     occupation 
      1      -5.9731      2.00000
      2      -5.4748      2.00000
      3      -5.4495      2.00000
      4      -5.3909      2.00000
      5      -4.9709      2.00000
      6      -4.9445      2.00000
      7      -4.8830      2.00000
      8      -4.4975      2.00000
      9      -4.4253      2.00000
     10      -4.4023      2.00000
     11      -4.3377      2.00000
     12      -4.0661      2.00000
     13      -3.9903      2.00000
     14      -3.9759      2.00000
     15      -3.9572      2.00000
     16      -3.9323      2.00000
     17      -3.9181      2.00000
     18      -3.7755      2.00000
     19      -3.7612      2.00000
     20      -3.7314      2.00000
     21      -3.2955      2.00000
     22      -3.2767      2.00000
     23      -3.2218      2.00000
     24      -2.9332      2.00000
     25      -2.9035      2.00000
     26      -2.8689      2.00000
     27      -2.7905      2.00000
     28      -2.7467      2.00000
     29      -2.7071      2.00000
     30      -2.6984      2.00000
     31      -2.6804      2.00000
     32      -2.6334      2.00000
     33      -1.2618      2.00000
     34      -1.2275      2.00000
     35      -1.2151      2.00000
     36      -1.1879      2.00000
     37      -1.1549      2.00000
     38      -1.1443      2.00000
     39      -1.1022      2.00000
     40      -1.0657      2.00000
     41      -1.0383      2.00000
     42      -0.9794      2.00000
     43      -0.9360      2.00000
     44      -0.9167      2.00000
     45      -0.8899      2.00000
     46      -0.8569      2.00000
     47      -0.7774      2.00000
     48      -0.1789      2.00000
     49      -0.1317      2.00000
     50      -0.1050      2.00000
     51      -0.0860      2.00000
     52      -0.0712      2.00000
     53      -0.0445      2.00000
     54       0.0060      2.00000
     55       0.7776      2.00000
     56       0.8148      2.00000
     57       0.8451      2.00000
     58       1.1028      2.00000
     59       1.1281      2.00000
     60       1.1574      2.00000
     61       1.6576      2.00000
     62       1.6858      2.00000
     63       1.7005      2.00000
     64       1.7041      2.00000
     65       1.7341      2.00000
     66       1.7386      2.00000
     67       1.7732      2.00000
     68       1.7884      2.00000
     69       1.8237      2.00000
     70       2.2981      2.00000
     71       2.3097      2.00000
     72       2.3345      2.00000
     73       2.3791      2.00000
     74       2.3833      2.00000
     75       2.4166      2.00000
     76       2.4394      2.00000
     77       2.4702      2.00000
     78       2.4822      2.00000
     79       2.5335      2.00000
     80       2.5578      2.00000
     81       2.5922      2.00000
     82       2.7626      2.00000
     83       2.7993      2.00000
     84       2.8154      2.00000
     85       2.8318      2.00000
     86       2.8487      2.00000
     87       2.8711      2.00000
     88       3.0550      2.00000
     89       3.0708      2.00000
     90       3.0827      2.00000
     91       3.0944      2.00000
     92       3.1125      2.00000
     93       3.1565      2.00000
     94       3.3885      2.00000
     95       3.4157      2.00000
     96       3.4603      2.00000
     97       3.4745      2.00000
     98       3.4887      2.00000
     99       3.5206      2.00000
    100       3.5563      2.00000
    101       3.5628      2.00000
    102       3.5829      2.00000
    103       3.7698      2.00000
    104       3.7963      2.00000
    105       3.8307      2.00000
    106       3.8466      2.00000
    107       3.8632      2.00000
    108       3.8793      2.00000
    109       3.8973      2.00000
    110       3.9276      2.00000
    111       3.9564      2.00000
    112       4.1384      2.00000
    113       4.1990      2.00000
    114       4.2144      2.00000
    115       4.2526      2.00000
    116       4.4103      2.00000
    117       4.4435      2.00000
    118       4.4619      2.00000
    119       4.4999      2.00000
    120       4.5441      2.00000
    121       4.5812      2.00000
    122       4.6665      2.00000
    123       4.7033      2.00000
    124       4.9838      2.00000
    125       4.9952      2.00000
    126       5.0496      2.00000
    127       5.4585      2.00000
    128       5.5168      2.00000
    129       6.6065      0.00000
    130       6.6453      0.00000
    131       6.6507      0.00000
    132       7.0531      0.00000
    133       7.0972      0.00000
    134       7.1220      0.00000
    135       7.3456      0.00000
    136       7.5433      0.00000
    137       7.5639      0.00000
    138       7.5816      0.00000
    139       7.6522      0.00000
    140       7.6784      0.00000
    141       7.7120      0.00000
    142       7.8364      0.00000
    143       7.8642      0.00000
    144       7.8758      0.00000
    145       7.9008      0.00000
    146       7.9181      0.00000
    147       7.9590      0.00000
    148       8.0787      0.00000
    149       8.0974      0.00000
    150       8.1101      0.00000
    151       8.1415      0.00000
    152       8.1464      0.00000
    153       8.1967      0.00000
    154       8.2294      0.00000
    155       8.4003      0.00000
    156       8.4217      0.00000
    157       8.4368      0.00000
    158       8.4683      0.00000
    159       8.5106      0.00000
    160       8.5631      0.00000
    161       8.6021      0.00000


--------------------------------------------------------------------------------------------------------


 soft charge-density along one line, spin component           1
         0         1         2         3         4         5         6         7         8         9
 total charge-density along one line
 
 pseudopotential strength for first ion, spin component:           1
 18.430  25.713   0.001  -0.002   0.001   0.002  -0.003   0.001
 25.713  35.879   0.002  -0.002   0.001   0.003  -0.004   0.001
  0.001   0.002   4.181  -0.000   0.000   7.791  -0.000   0.000
 -0.002  -0.002  -0.000   4.181   0.000  -0.000   7.791   0.000
  0.001   0.001   0.000   0.000   4.181   0.000   0.000   7.791
  0.002   0.003   7.791  -0.000   0.000  14.529  -0.000   0.001
 -0.003  -0.004  -0.000   7.791   0.000  -0.000  14.529   0.001
  0.001   0.001   0.000   0.000   7.791   0.001   0.001  14.529
 total augmentation occupancy for first ion, spin component:           1
  6.030  -2.334   0.082   0.156  -0.034  -0.028  -0.057   0.013
 -2.334   1.015  -0.047  -0.096   0.017   0.014   0.030  -0.006
  0.082  -0.047   3.298  -0.005  -0.006  -0.796   0.000   0.003
  0.156  -0.096  -0.005   3.322   0.053   0.001  -0.805  -0.019
 -0.034   0.017  -0.006   0.053   3.380   0.004  -0.019  -0.826
 -0.028   0.014  -0.796   0.001   0.004   0.200  -0.000  -0.001
 -0.057   0.030   0.000  -0.805  -0.019  -0.000   0.203   0.006
  0.013  -0.006   0.003  -0.019  -0.826  -0.001   0.006   0.210


------------------------ aborting loop because EDIFF is reached ----------------------------------------


    CHARGE:  cpu time      1.0750: real time      1.0774
    FORLOC:  cpu time      0.0377: real time      0.0378
    FORNL :  cpu time     10.5045: real time     10.5282
    STRESS:  cpu time     31.7391: real time     31.8110
    FORCOR:  cpu time      0.4553: real time      0.4563
    FORHAR:  cpu time      0.1961: real time      0.1966
    MIXING:  cpu time      0.1571: real time      0.1574
    OFIELD:  cpu time      0.0000: real time      0.0000

  FORCE on cell =-STRESS in cart. coord.  units (eV):
  Direction    XX          YY          ZZ          XY          YZ          ZX
  --------------------------------------------------------------------------------------
  Alpha Z   106.65104   106.65104   106.65104
  Ewald   -2429.19069 -2431.42798 -2429.63681   -16.69690    -4.34045   -10.72684
  Hartree   160.06386   160.28391   160.66641    -2.02894    -0.32188    -0.81483
  E(xc)    -810.38062  -810.34009  -810.37511     0.10705     0.04422     0.07406
  Local    -943.22074  -941.13431  -943.74037    17.56453     4.13288    10.86828
  n-local  2490.47633  2489.51930  2490.29272    -3.01056    -0.95462    -2.17385
  augment  -372.12562  -372.08508  -372.12575     0.09240     0.03947     0.07407
  Kinetic  1805.50607  1806.11744  1805.64796     2.72182     0.22261     2.11430
  Fock        0.00000     0.00000     0.00000     0.00000     0.00000     0.00000
  -------------------------------------------------------------------------------------
  Total       7.77964     7.58423     7.38009    -1.25059    -1.17778    -0.58481
  in kB       9.64097     9.39881     9.14582    -1.54980    -1.45957    -0.72473
  external pressure =        9.40 kB  Pullay stress =        0.00 kB


 VOLUME and BASIS-vectors are now :
 -----------------------------------------------------------------------------
  energy-cutoff  :      250.00
  volume of cell :     1292.85
      direct lattice vectors                 reciprocal lattice vectors
    10.893761580  0.000000000  0.000000000     0.091795657  0.000068178  0.000083820
    -0.008090790 10.893515920  0.000000000     0.000000000  0.091797727 -0.000048668
    -0.009952100  0.005775880 10.894402900     0.000000000  0.000000000  0.091790253

  length of vectors
    10.893761580 10.893518925 10.894408977     0.091795720  0.091797740  0.091790253


 FORCES acting on ions
    electron-ion (+dipol)            ewald-force                    non-local-force                 convergence-correction
 -----------------------------------------------------------------------------------------------
   -.825E+00 0.306E+01 0.518E+01   0.587E+00 -.315E+01 -.455E+01   0.276E+00 -.304E+00 -.683E+00   0.812E-03 0.264E-02 0.194E-03
   -.452E+01 0.178E+01 -.323E+01   0.414E+01 -.179E+01 0.274E+01   0.689E+00 -.531E+00 0.711E+00   -.270E-02 -.342E-02 0.329E-02
   -.246E+01 0.210E+01 0.478E+00   0.226E+01 -.194E+01 -.483E+00   0.527E+00 -.760E+00 0.389E+00   -.155E-03 0.844E-03 -.324E-02
   -.336E+00 0.266E+01 -.208E+00   0.142E+00 -.274E+01 0.253E+00   -.111E+00 -.603E+00 -.156E+00   0.174E-02 -.373E-02 -.195E-02
   -.144E+01 0.118E+01 0.376E+01   0.150E+01 -.123E+01 -.343E+01   0.113E+00 0.606E+00 -.444E+00   0.461E-03 -.212E-02 -.159E-02
   -.972E+00 0.209E+01 0.149E+01   0.928E+00 -.190E+01 -.112E+01   -.327E+00 0.189E+00 -.342E+00   0.593E-03 -.248E-03 0.305E-02
   -.663E+00 0.701E+00 0.198E+01   0.735E+00 -.844E+00 -.172E+01   0.189E+00 0.947E-01 -.325E+00   0.216E-02 0.224E-02 -.355E-02
   -.122E+01 -.109E+01 -.115E+01   0.114E+01 0.114E+01 0.122E+01   -.431E-01 0.518E+00 0.813E+00   0.344E-02 -.143E-02 -.380E-02
   0.829E+00 0.515E+00 -.204E+01   -.119E+01 -.476E+00 0.199E+01   0.457E-01 0.770E+00 0.563E+00   -.316E-02 -.850E-03 -.105E-03
   0.512E+00 0.260E+00 -.788E+00   -.398E+00 -.328E+00 0.557E+00   0.291E+00 -.950E-03 -.619E+00   0.420E-02 -.285E-03 -.476E-02
   0.158E+01 0.291E+01 0.993E+00   -.151E+01 -.250E+01 -.609E+00   0.231E+00 -.154E+00 -.347E+00   -.990E-03 -.223E-02 0.326E-02
   0.825E+01 0.212E+01 -.168E+01   -.761E+01 -.187E+01 0.148E+01   -.135E+01 -.463E+00 0.499E-01   -.250E-02 -.245E-02 0.422E-02
   0.617E+01 0.173E+01 0.849E+00   -.596E+01 -.181E+01 -.536E+00   -.680E+00 -.854E+00 -.665E+00   -.223E-02 -.236E-02 -.751E-03
   -.191E+01 -.272E+01 0.205E+01   0.158E+01 0.237E+01 -.156E+01   -.896E-01 0.674E+00 -.351E+00   0.491E-02 0.182E-02 -.508E-02
   -.298E+01 0.110E+01 -.331E+01   0.234E+01 -.125E+01 0.311E+01   0.789E+00 0.141E+00 0.859E+00   0.445E-03 -.210E-02 0.355E-02
   -.105E+01 -.368E+01 0.282E+01   0.640E+00 0.326E+01 -.234E+01   0.661E+00 0.969E+00 -.745E+00   -.582E-03 -.289E-02 0.205E-02
   -.577E+00 -.366E+01 0.104E+01   0.423E+00 0.321E+01 -.129E+01   0.111E+00 0.550E+00 0.506E+00   0.961E-03 -.195E-02 0.104E-02
   0.173E+01 -.221E+01 0.172E+01   -.155E+01 0.218E+01 -.138E+01   0.883E-01 0.360E+00 -.550E+00   0.176E-02 0.331E-02 0.244E-02
   -.313E+01 -.148E+01 -.130E+00   0.296E+01 0.122E+01 -.254E+00   0.692E+00 0.365E+00 0.879E-01   0.254E-02 -.164E-03 0.118E-02
   -.184E+01 -.568E+01 0.606E+00   0.160E+01 0.500E+01 -.362E+00   0.148E+00 0.179E+01 -.374E+00   0.316E-02 0.251E-02 0.179E-02
   0.471E-02 -.142E+00 0.367E+01   0.150E+00 0.403E+00 -.343E+01   -.289E-01 -.506E+00 -.587E+00   0.298E-02 0.685E-03 0.161E-03
   0.128E+01 -.944E+00 -.368E+01   -.120E+01 0.102E+01 0.300E+01   -.257E+00 -.505E+00 0.762E+00   -.608E-05 0.911E-03 -.344E-03
   0.346E+01 0.976E+00 0.286E+01   -.289E+01 -.765E+00 -.264E+01   -.160E+01 -.939E+00 -.373E+00   0.392E-03 -.140E-02 -.609E-03
   -.328E+00 0.309E+00 -.239E-01   0.391E+00 -.352E+00 -.433E-01   0.201E+00 -.250E+00 -.592E+00   0.228E-03 0.732E-03 -.304E-02
   -.347E+00 -.301E+00 -.329E+01   0.102E+00 0.513E+00 0.306E+01   0.633E+00 0.142E-01 0.519E+00   -.239E-02 0.224E-02 0.396E-03
   0.200E+01 -.984E-01 -.255E+00   -.184E+01 0.434E+00 0.364E+00   -.685E+00 0.178E+00 0.306E+00   0.155E-02 0.876E-04 -.743E-03
   0.452E+01 0.391E+00 -.242E+01   -.419E+01 -.231E-01 0.207E+01   -.186E+00 -.714E+00 0.614E+00   0.182E-02 -.349E-03 0.105E-02
   0.688E+01 0.438E+01 -.137E+01   -.627E+01 -.375E+01 0.152E+01   -.156E+01 -.680E+00 0.559E+00   -.284E-02 0.262E-02 -.519E-03
   0.437E+01 -.119E+01 0.227E+01   -.423E+01 0.959E+00 -.187E+01   -.461E+00 0.767E-02 -.945E+00   -.122E-02 0.257E-02 -.172E-02
   -.182E+00 -.345E+00 -.245E+01   0.162E+00 0.190E+00 0.199E+01   -.313E+00 -.381E+00 0.621E+00   0.146E-02 -.238E-02 -.189E-03
   0.456E+01 -.436E+01 0.149E+01   -.431E+01 0.388E+01 -.129E+01   -.108E+01 0.156E+01 -.732E+00   0.303E-02 0.242E-02 0.101E-02
   0.110E+01 0.254E+01 -.368E+01   -.131E+01 -.279E+01 0.297E+01   -.100E-01 -.105E+00 0.118E+01   -.128E-02 0.253E-02 0.273E-02
   0.109E+01 -.391E+01 -.149E+01   -.101E+01 0.336E+01 0.157E+01   -.991E-01 0.118E+01 -.135E+00   0.128E-02 -.169E-02 0.249E-02
   0.217E-01 -.127E+01 -.723E-01   -.336E+00 0.490E+00 0.167E+00   0.746E+00 0.523E+00 -.674E-01   0.154E-02 -.345E-02 0.226E-02
   0.382E+01 -.267E+01 -.258E+00   -.365E+01 0.227E+01 0.399E+00   -.106E+01 0.114E+01 0.428E+00   -.180E-02 0.104E-02 -.218E-02
   0.713E+00 0.480E+01 -.189E+01   -.506E+00 -.448E+01 0.166E+01   -.438E+00 -.946E+00 -.353E+00   -.194E-02 -.831E-03 0.295E-02
   0.430E+01 0.471E+01 -.408E+01   -.396E+01 -.421E+01 0.364E+01   -.282E+00 -.787E+00 0.707E+00   0.106E-02 -.326E-02 -.606E-03
   0.231E+01 0.250E+01 0.196E+01   -.196E+01 -.190E+01 -.179E+01   -.513E+00 -.136E+00 -.635E+00   0.325E-04 -.488E-02 -.285E-02
   0.134E+01 0.350E+01 -.126E+01   -.115E+01 -.347E+01 0.125E+01   0.833E-01 -.591E+00 -.190E+00   -.234E-02 -.104E-02 0.368E-03
   -.123E+01 -.183E+01 -.276E+01   0.133E+01 0.151E+01 0.238E+01   -.935E-01 0.813E+00 0.828E+00   -.313E-02 -.331E-02 0.360E-02
   -.509E+01 -.506E+00 0.554E+01   0.456E+01 0.654E+00 -.512E+01   0.146E+01 0.439E+00 -.582E+00   0.592E-02 0.282E-02 -.133E-02
   -.458E+00 0.647E+00 -.921E+00   0.388E+00 -.526E+00 0.984E+00   -.233E+00 0.221E+00 0.118E+00   -.498E-02 -.386E-02 0.141E-02
   0.106E+00 0.273E+01 -.101E+01   -.104E+00 -.243E+01 0.948E+00   0.278E+00 -.634E+00 0.107E+01   0.144E-03 0.232E-04 -.203E-02
   -.251E+01 0.332E+01 -.772E+00   0.242E+01 -.309E+01 0.696E+00   0.573E+00 -.660E+00 0.294E+00   0.361E-02 -.290E-03 -.261E-02
   0.184E+01 -.806E+00 0.462E+01   -.160E+01 0.609E+00 -.434E+01   -.116E+01 0.218E+00 -.712E+00   0.353E-02 -.120E-02 -.496E-02
   -.181E+01 -.225E+01 -.177E+01   0.151E+01 0.219E+01 0.173E+01   0.615E+00 -.348E+00 0.126E+00   -.531E-02 0.707E-03 0.229E-03
   0.713E+00 0.162E+01 0.181E+01   -.971E+00 -.157E+01 -.177E+01   0.702E+00 0.604E+00 -.647E+00   0.115E-02 -.327E-02 0.866E-03
   -.221E+01 0.322E+01 0.203E+01   0.195E+01 -.268E+01 -.198E+01   0.132E+00 -.392E+00 -.291E+00   0.169E-02 0.827E-03 -.262E-02
   -.135E+01 0.161E+01 -.302E+01   0.125E+01 -.154E+01 0.253E+01   0.542E+00 -.846E+00 0.146E+01   0.110E-03 0.298E-02 0.281E-02
   -.133E+01 -.643E+01 0.278E+01   0.145E+01 0.566E+01 -.252E+01   -.712E+00 0.108E+01 -.151E+00   -.481E-02 0.308E-02 0.736E-03
   0.115E+01 -.293E+01 -.102E+00   -.966E+00 0.253E+01 0.191E+00   -.444E+00 0.445E+00 0.253E+00   -.343E-02 0.120E-03 0.597E-03
   -.183E+01 -.849E+01 0.239E+01   0.189E+01 0.792E+01 -.211E+01   0.218E+00 0.223E+01 -.108E+00   0.404E-03 0.123E-02 -.195E-02
   -.264E+01 0.530E+00 0.208E+01   0.253E+01 -.350E-01 -.201E+01   0.744E+00 -.801E+00 -.456E+00   -.423E-02 0.279E-02 -.117E-02
   -.282E+01 0.449E+01 0.217E-01   0.264E+01 -.390E+01 -.230E+00   0.523E+00 -.132E+01 -.269E+00   -.199E-02 0.566E-02 -.223E-02
   0.491E+01 -.964E+00 -.437E+01   -.403E+01 0.968E+00 0.405E+01   -.145E+01 -.433E+00 0.678E+00   -.105E-02 0.145E-02 0.371E-02
   0.184E+01 -.359E+01 0.149E+01   -.125E+01 0.323E+01 -.147E+01   -.101E+01 0.823E-01 -.172E+00   -.424E-03 0.884E-03 0.565E-03
   -.293E+01 0.617E+01 -.287E+00   0.303E+01 -.519E+01 0.189E+00   0.319E+00 -.186E+01 -.265E+00   -.305E-03 -.159E-02 0.123E-02
   -.467E+01 -.814E+00 -.601E+00   0.420E+01 0.124E+01 0.750E+00   0.782E+00 0.660E-01 -.248E+00   -.142E-02 0.183E-02 0.208E-02
   -.130E+00 -.471E+01 0.320E+01   0.382E+00 0.436E+01 -.293E+01   -.387E+00 0.680E+00 -.582E+00   -.178E-02 -.162E-03 -.281E-02
   0.638E+00 0.256E+01 0.787E-01   -.273E+00 -.193E+01 0.192E+00   -.429E+00 -.122E+01 -.826E+00   0.216E-02 0.751E-04 0.163E-02
   -.416E+01 -.273E+01 -.588E+01   0.404E+01 0.253E+01 0.517E+01   0.337E+00 0.482E-01 0.188E+01   0.183E-03 -.821E-03 -.633E-03
   -.919E+00 0.226E+01 -.330E+01   0.923E+00 -.235E+01 0.285E+01   0.447E+00 -.635E+00 -.864E-01   -.233E-02 0.162E-02 0.606E-05
   -.436E+01 -.434E+01 0.586E+01   0.392E+01 0.408E+01 -.544E+01   0.117E+01 0.823E+00 -.147E+01   -.199E-02 0.279E-03 -.309E-02
   -.698E+01 0.624E+00 -.343E+01   0.603E+01 -.582E+00 0.294E+01   0.189E+01 0.210E-01 0.569E+00   -.534E-05 0.699E-03 -.264E-04
 -----------------------------------------------------------------------------------------------
   -.153E+00 -.471E-01 0.135E+00   0.244E-12 0.258E-13 -.155E-13   0.147E+00 0.493E-01 -.128E+00   -.182E-02 -.372E-02 -.416E-02
 
 
 POSITION                                       TOTAL-FORCE (eV/Angst)
 -----------------------------------------------------------------------------------
      0.00301      0.02680     10.87460         0.039433     -0.395445     -0.046015
      2.77883      2.78344      0.00845         0.308416     -0.540144      0.227047
      2.68139      0.11146      2.74969         0.326258     -0.595152      0.380494
      0.10544      2.75398      2.74167        -0.302855     -0.689055     -0.112780
      1.36549      1.36712      1.31490         0.165514      0.553391     -0.120415
      4.21685      4.09099      1.38509        -0.369235      0.386022      0.034362
      3.98296      1.46544      4.19575         0.262925     -0.045628     -0.072699
      1.46156      4.06505      4.04160        -0.117719      0.561375      0.883503
      0.05865      0.00444      5.51601        -0.316269      0.808347      0.510517
      2.67249      2.82667      5.63647         0.409859     -0.069023     -0.854796
      2.68573      0.03690      8.14501         0.294673      0.257644      0.039888
     10.81802      2.77198      8.34495        -0.708777     -0.212064     -0.149186
      1.31692      1.51785      6.95868        -0.475072     -0.937125     -0.351876
      4.14313      4.18927      6.82374        -0.408476      0.327875      0.133787
      4.06945      1.39601      9.45503         0.153534     -0.008953      0.655290
      1.35482      4.08788      9.60843         0.248475      0.547825     -0.260849
      0.02798      5.40985      0.09003        -0.041511      0.097367      0.259037
      2.71523      8.15627      0.06959         0.265852      0.328392     -0.214119
      2.82759      5.46720      2.78376         0.519758      0.095529     -0.294389
      0.12509      8.13072      2.83462        -0.085535      1.107806     -0.127765
      1.39934      6.78853      1.45729         0.128973     -0.243847     -0.344031
      4.07080      9.58393      1.43131        -0.177099     -0.423811      0.075869
      4.26948      6.88429      4.08975        -1.024107     -0.729282     -0.154513
      1.44132      9.56934      4.22255         0.263967     -0.292395     -0.661912
      0.04627      5.43747      5.40382         0.385020      0.228635      0.295666
      2.91610      8.17393      5.44734        -0.533338      0.513470      0.414876
      2.70635      5.48393      8.19727         0.145142     -0.346178      0.257512
      0.08138      8.16776      8.13333        -0.952887     -0.045550      0.713845
      1.46320      6.85014      6.78079        -0.321510     -0.222622     -0.546548
      4.14149      9.63064      6.85080        -0.331854     -0.538771      0.163851
      4.09889      6.76969      9.59204        -0.826886      1.077979     -0.527417
      1.39775      9.55556      9.50723        -0.225101     -0.354179      0.461406
      5.40645      0.02085      0.04624        -0.023178      0.636339     -0.047475
      8.07373      2.76693      0.10065         0.433443     -0.260342      0.029643
      8.31747      0.02940      2.69447        -0.898049      0.739888      0.566756
      5.47901      2.81468      2.91533        -0.233056     -0.630338     -0.589260
      6.75381      1.40097      1.45720         0.060635     -0.287311      0.262206
      9.56841      4.02291      1.44404        -0.157390      0.456646     -0.471175
      9.62837      1.42147      4.12110         0.279205     -0.557712     -0.203599
      6.91906      4.16011      4.12415         0.011291      0.494626      0.457624
      5.40884      0.01738      5.41322         0.940205      0.590068     -0.166129
      8.29833      2.77405      5.45889        -0.308030      0.337648      0.181857
      8.04516      0.06447      8.13437         0.280868     -0.336087      1.004482
      5.43832      2.78857      8.12666         0.494222     -0.429910      0.215060
      6.85802      1.45034      6.75293        -0.919896      0.020341     -0.433734
      9.55487      4.19554      6.86888         0.308887     -0.406220      0.085076
      9.35764      1.31143      9.66241         0.444950      0.648275     -0.605104
      6.81598      4.09071      9.53333        -0.124761      0.148053     -0.244914
      5.48490      5.50355     10.82831         0.439034     -0.769042      0.971669
      8.28957      8.23802      0.04807        -0.601178      0.317128      0.114652
      8.25115      5.50327      2.68772        -0.262301      0.046733      0.343646
      5.52034      8.12047      2.66891         0.277967      1.653878      0.174334
      6.84518      6.84261      1.31886         0.633101     -0.302685     -0.383643
      9.66908      9.56542      1.46290         0.339609     -0.717680     -0.480422
      9.59947      6.86307      4.09903        -0.573463     -0.426977      0.356591
      6.89429      9.58820      4.06046        -0.424830     -0.282029     -0.151325
      5.50668      5.57153      5.50615         0.423760     -0.885307     -0.362516
      8.20954      8.21794      5.47199         0.320825      0.496684     -0.096186
      8.15049      5.50656      8.21989        -0.136210      0.328196     -0.310017
      5.41748      8.26258      8.28770        -0.061633     -0.589756     -0.553551
      6.79989      6.95340      6.80656         0.218619     -0.149508      1.172296
      9.50390      9.63041      6.91753         0.448657     -0.722773     -0.535847
      9.52916      6.76331      9.66288         0.730518      0.572277     -1.049962
      6.75122      9.57973      9.61391         0.938613      0.064461      0.081330
 -----------------------------------------------------------------------------------
    total drift:                               -0.007883     -0.001558      0.002776


--------------------------------------------------------------------------------------------------------



  FREE ENERGIE OF THE ION-ELECTRON SYSTEM (eV)
  ---------------------------------------------------
  free  energy   TOTEN  =      -344.85644868 eV

  energy  without entropy=     -344.85644868  energy(sigma->0) =     -344.85644868
 


--------------------------------------------------------------------------------------------------------


    POTLOK:  cpu time      0.2526: real time      0.2533


--------------------------------------------------------------------------------------------------------


 writing wavefunctions
     LOOP+:  cpu time    366.5599: real time    371.5033
    4ORBIT:  cpu time      0.0000: real time      0.0000

 total amount of memory used by VASP MPI-rank0    37836. kBytes
=======================================================================

   base      :      30000. kBytes
   nonlr-proj:       1196. kBytes
   fftplans  :        841. kBytes
   grid      :       1174. kBytes
   one-center:          9. kBytes
   wavefun   :       4616. kBytes
 
  
  
 General timing and accounting informations for this job:
 ========================================================
  
                  Total CPU time used (sec):      405.150
                            User time (sec):      404.979
                          System time (sec):        0.171
                         Elapsed time (sec):      413.354
  
                   Maximum memory used (kb):      217896.
                   Average memory used (kb):          N/A
  
                          Minor page faults:        19476
                          Major page faults:         8164
                 Voluntary context switches:         5595
