 vasp.6.4.2 20Jul23 (build Jun 27 2024 19:57:08) complex                        
  
 executed on                 T2A5 date 2026.01.13  23:12:56
 running   28 mpi-ranks, with    1 threads/rank, on    1 nodes
 distrk:  each k-point on   28 cores,    1 groups
 distr:  one band on NCORE=  28 cores,    1 groups


--------------------------------------------------------------------------------------------------------


 INCAR:
   ISTART = 1
   ICHARG = 1
   LWAVE = .T.
   LCHARG = .T.
   ENCUT = 250
   PREC = Normal
   ADDGRID = .F.
   EDIFF = 1E-4
   LREAL = Auto
   ALGO = Fast
   NSW = 0
   IBRION = -1
   ISMEAR = 0
   SIGMA = 0.1
   NPAR = 1
   KPAR = 1
   SYMPREC = 1E-4

 POTCAR:    PAW_PBE Si 05Jan2001                  
 POTCAR:    PAW_PBE Si 05Jan2001                  
   SHA256 =  79d9987ad8750f624c4d6acb2a16d13abf6a777132adc04dc6c8399be72b42bb Si/POTCAR             
   COPYR  = (c) Copyright 05Jan2001 Georg Kresse                                                    
   COPYR  = This file is part of the software VASP. Any use, copying, and all other rights are regul
   COPYR  = If you do not have a valid VASP license, you may not use, copy or distribute this file. 
   VRHFIN =Si: s2p2                                                                                 
   LEXCH  = PE                                                                                      
   EATOM  =   103.0669 eV,    7.5752 Ry                                                             
                                                                                                    
   TITEL  = PAW_PBE Si 05Jan2001                                                                    
   LULTRA =        F    use ultrasoft PP ?                                                          
   IUNSCR =        1    unscreen: 0-lin 1-nonlin 2-no                                               
   RPACOR =    1.500    partial core radius                                                         
   POMASS =   28.085; ZVAL   =    4.000    mass and valenz                                          
   RCORE  =    1.900    outmost cutoff radius                                                       
   RWIGS  =    2.480; RWIGS  =    1.312    wigner-seitz radius (au A)                               
   ENMAX  =  245.345; ENMIN  =  184.009 eV                                                          
   ICORE  =        2    local potential                                                             
   LCOR   =        T    correct aug charges                                                         
   LPAW   =        T    paw PP                                                                      
   EAUG   =  322.069                                                                                
   DEXC   =    0.000                                                                                
   RMAX   =    1.950    core radius for proj-oper                                                   
   RAUG   =    1.300    factor for augmentation sphere                                              
   RDEP   =    1.993    radius for radial grids                                                     
   RDEPT  =    1.837    core radius for aug-charge                                                  
                                                                                                    
   Atomic configuration                                                                             
    6 entries                                                                                       
     n  l   j            E        occ.                                                              
     1  0  0.50     -1785.8828   2.0000                                                             
     2  0  0.50      -139.4969   2.0000                                                             
     2  1  1.50       -95.5546   6.0000                                                             
     3  0  0.50       -10.8127   2.0000                                                             
     3  1  0.50        -4.0811   2.0000                                                             
     3  2  1.50        -4.0817   0.0000                                                             
   Description                                                                                      
     l       E           TYP  RCUT    TYP  RCUT                                                     
     0    -10.8127223     23  1.900                                                                 
     0     -7.6451159     23  1.900                                                                 
     1     -4.0811372     23  1.900                                                                 
     1      2.4879257     23  1.900                                                                 
     2     -4.0817478      7  1.900                                                                 
  local pseudopotential read in
  partial core-charges read in
  partial kinetic energy density read in
  atomic valenz-charges read in
  non local Contribution for L=           0  read in
    real space projection operators read in
  non local Contribution for L=           0  read in
    real space projection operators read in
  non local Contribution for L=           1  read in
    real space projection operators read in
  non local Contribution for L=           1  read in
    real space projection operators read in
    PAW grid and wavefunctions read in
 
   number of l-projection  operators is LMAX  =           4
   number of lm-projection operators is LMMAX =           8
 
 Optimization of the real space projectors (new method)

 maximal supplied QI-value         = 19.84
 optimisation between [QCUT,QGAM] = [  7.94, 16.07] = [ 17.64, 72.34] Ry 
 Optimized for a Real-space Cutoff    1.55 Angstroem

   l    n(q)    QCUT    max X(q) W(low)/X(q) W(high)/X(q)  e(spline) 
   0      7     7.937   159.560    0.97E-04    0.31E-03    0.13E-06
   0      7     7.937   115.863    0.95E-04    0.31E-03    0.13E-06
   1      7     7.937    88.339    0.40E-03    0.66E-03    0.12E-06
   1      7     7.937    48.592    0.39E-03    0.64E-03    0.12E-06
  PAW_PBE Si 05Jan2001                  :
 energy of atom  1       EATOM= -103.0669
 kinetic energy error for atom=    0.0052 (will be added to EATOM!!)
 
 
 POSCAR: Si
  positions in cartesian coordinates
  No initial velocities read in
 exchange correlation table for  LEXCH =        8
   RHO(1)=    0.500       N(1)  =     2000
   RHO(2)=  100.500       N(2)  =     4000
 


--------------------------------------------------------------------------------------------------------


 ion  position               nearest neighbor table
   1  0.999  0.006  0.001-  54 2.32  47 2.34   5 2.39  32 2.41
   2  0.262  0.253  0.003-  15 2.32   6 2.32   5 2.35  16 2.36
   3  0.253  0.001  0.256-  24 2.29   7 2.36  22 2.37   5 2.40
   4  0.002  0.255  0.250-  39 2.32   8 2.35  38 2.35   5 2.38
   5  0.132  0.131  0.125-   2 2.35   4 2.38   1 2.39   3 2.40
   6  0.376  0.380  0.131-  19 2.27   2 2.32  49 2.33  36 2.35
   7  0.369  0.133  0.383-  10 2.35   3 2.36  41 2.36  36 2.37
   8  0.136  0.374  0.371-  10 2.31  19 2.31   4 2.35  25 2.36
   9  0.008  0.009  0.506-  39 2.32  13 2.32  24 2.39  62 2.40
  10  0.251  0.261  0.509-   8 2.31   7 2.35  14 2.35  13 2.38
  11  0.254  0.008  0.749-  13 2.33  30 2.34  15 2.34  32 2.45
  12  0.996  0.254  0.764-  47 2.33  46 2.34  13 2.37  16 2.39
  13  0.124  0.134  0.635-   9 2.32  11 2.33  12 2.37  10 2.38
  14  0.379  0.386  0.629-  57 2.32  27 2.33  44 2.34  10 2.35
  15  0.379  0.136  0.870-  44 2.31   2 2.32  11 2.34  33 2.38
  16  0.134  0.379  0.880-  27 2.34   2 2.36  17 2.38  12 2.39
  17  0.005  0.499  0.010-  38 2.36  21 2.38  16 2.38  63 2.39
  18  0.253  0.747  0.007-  31 2.29  22 2.32  21 2.34  32 2.38
  19  0.261  0.502  0.256-   6 2.27  23 2.29   8 2.31  21 2.32
  20  0.012  0.757  0.260-  24 2.33  54 2.36  21 2.39  55 2.43
  21  0.134  0.623  0.136-  19 2.32  18 2.34  17 2.38  20 2.39
  22  0.374  0.871  0.131-  18 2.32   3 2.37  52 2.38  33 2.43
  23  0.385  0.624  0.375-  19 2.29  57 2.33  26 2.39  52 2.39
  24  0.137  0.880  0.383-   3 2.29  20 2.33  26 2.34   9 2.39
  25  0.013  0.498  0.499-  29 2.35   8 2.36  46 2.37  55 2.40
  26  0.262  0.753  0.503-  30 2.32  24 2.34  29 2.36  23 2.39
  27  0.254  0.505  0.755-  31 2.32  14 2.33  16 2.34  29 2.37
  28  0.003  0.747  0.754-  63 2.31  32 2.37  29 2.37  62 2.38
  29  0.132  0.629  0.624-  25 2.35  26 2.36  27 2.37  28 2.37
  30  0.378  0.881  0.629-  26 2.32  60 2.33  11 2.34  41 2.37
  31  0.374  0.632  0.878-  18 2.29  27 2.32  60 2.34  49 2.42
  32  0.128  0.874  0.879-  28 2.37  18 2.38   1 2.41  11 2.45
  33  0.496  0.010  0.006-  64 2.37  15 2.38  37 2.43  22 2.43
  34  0.752  0.253  0.008-  47 2.30  38 2.33  37 2.34  48 2.39
  35  0.762  0.008  0.254-  39 2.33  37 2.34  56 2.37  54 2.41
  36  0.498  0.258  0.261-   6 2.35   7 2.37  40 2.37  37 2.40
  37  0.630  0.132  0.137-  35 2.34  34 2.34  36 2.40  33 2.43
  38  0.871  0.381  0.134-  51 2.31  34 2.33   4 2.35  17 2.36
  39  0.887  0.130  0.379-   9 2.32   4 2.32  35 2.33  42 2.41
  40  0.630  0.385  0.378-  51 2.31  57 2.32  42 2.37  36 2.37
  41  0.502  0.006  0.500-  45 2.36   7 2.36  30 2.37  56 2.38
  42  0.758  0.261  0.503-  46 2.36  40 2.37  45 2.39  39 2.41
  43  0.744  0.001  0.760-  64 2.33  47 2.35  45 2.46  62 2.51
  44  0.504  0.257  0.748-  45 2.30  15 2.31  48 2.32  14 2.34
  45  0.624  0.135  0.624-  44 2.30  41 2.36  42 2.39  43 2.46
  46  0.884  0.382  0.631-  59 2.34  12 2.34  42 2.36  25 2.37
  47  0.868  0.129  0.882-  34 2.30  12 2.33   1 2.34  43 2.35
  48  0.627  0.375  0.875-  44 2.32  59 2.37  34 2.39  49 2.39
  49  0.500  0.500  0.005-   6 2.33  53 2.36  48 2.39  31 2.42
  50  0.757  0.758  0.001-  64 2.32  53 2.35  54 2.38  63 2.43
  51  0.752  0.508  0.255-  40 2.31  38 2.31  53 2.31  55 2.33
  52  0.514  0.751  0.250-  56 2.32  22 2.38  53 2.38  23 2.39
  53  0.636  0.624  0.120-  51 2.31  50 2.35  49 2.36  52 2.38
  54  0.888  0.877  0.129-   1 2.32  20 2.36  50 2.38  35 2.41
  55  0.878  0.627  0.382-  51 2.33  58 2.36  25 2.40  20 2.43
  56  0.629  0.882  0.373-  52 2.32  58 2.35  35 2.37  41 2.38
  57  0.506  0.504  0.504-  14 2.32  40 2.32  23 2.33  61 2.38
  58  0.748  0.753  0.500-  56 2.35  55 2.36  62 2.37  61 2.39
  59  0.755  0.502  0.752-  61 2.32  46 2.34  63 2.34  48 2.37
  60  0.499  0.757  0.756-  30 2.33  31 2.34  64 2.35  61 2.37
  61  0.628  0.629  0.636-  59 2.32  60 2.37  57 2.38  58 2.39
  62  0.880  0.873  0.624-  58 2.37  28 2.38   9 2.40  43 2.51
  63  0.883  0.622  0.876-  28 2.31  59 2.34  17 2.39  50 2.43
  64  0.623  0.878  0.886-  50 2.32  43 2.33  60 2.35  33 2.37
 
  LATTYP: Found a base centered monoclinic cell.
 ALAT       =    26.6616356432
 B/A-ratio  =     0.5765547531
 C/A-ratio  =     0.4079934648
 COS(beta)  =    -0.8165983400
  
  Lattice vectors:
  
 A1 = (  10.8841932100, -10.8777694100,   0.0000000000)
 A2 = (   0.0212553100, -10.8850979200, -10.8761948000)
 A3 = (  -0.0089646600,  10.8777694100,   0.0000000000)


Analysis of symmetry for initial positions (statically):
=====================================================================
 Subroutine PRICEL returns:
 Original cell was already a primitive cell.
 

 Routine SETGRP: Setting up the symmetry group for a 
 base centered monoclinic supercell.


 Subroutine GETGRP returns: Found  1 space group operations
 (whereof  1 operations were pure point group operations)
 out of a pool of  4 trial point group operations.


The static configuration has the point symmetry C_1 .


Analysis of symmetry for dynamics (positions and initial velocities):
=====================================================================
 Subroutine PRICEL returns:
 Original cell was already a primitive cell.
 

 Routine SETGRP: Setting up the symmetry group for a 
 base centered monoclinic supercell.


 Subroutine GETGRP returns: Found  1 space group operations
 (whereof  1 operations were pure point group operations)
 out of a pool of  4 trial point group operations.


The dynamic configuration has the point symmetry C_1 .


 Subroutine INISYM returns: Found  1 space group operations
 (whereof  1 operations are pure point group operations),
 and found     1 'primitive' translations


----------------------------------------------------------------------------------------

                                     Primitive cell                                     

  volume of cell :    1286.6346

  direct lattice vectors                    reciprocal lattice vectors
    10.875228550  0.000000000  0.000000000     0.091952091  0.000075780  0.000103859
    -0.008964660 10.877769410  0.000000000     0.000000000  0.091930612 -0.000061944
    -0.012290650  0.007328510 10.876194800     0.000000000  0.000000000  0.091943921

  length of vectors
    10.875228550 10.877773104 10.876204214     0.091952180  0.091930633  0.091943921

  position of ions in fractional coordinates (direct lattice)
     0.999243704  0.006101487  0.001197629
     0.261811189  0.253348396  0.002798402
     0.253070813  0.001471173  0.256112713
     0.002345557  0.254843709  0.249971633
     0.131785692  0.130951602  0.125170158
     0.376092912  0.379971109  0.131352417
     0.369412909  0.132513572  0.383483711
     0.135650405  0.373978738  0.370756374
     0.008358457  0.009082915  0.506215772
     0.250589226  0.261014591  0.509138989
     0.253885213  0.008469879  0.749462670
     0.996209045  0.253697442  0.763820374
     0.123906543  0.134221726  0.634594595
     0.379445970  0.386018384  0.628850008
     0.379303064  0.135613824  0.869576371
     0.134003060  0.378676624  0.880442192
     0.005315139  0.498601642  0.010223748
     0.253169345  0.746615364  0.006504619
     0.261221490  0.501632482  0.256138309
     0.012192771  0.757047881  0.260163716
     0.134018284  0.623103038  0.135687706
     0.374237637  0.870509377  0.131079214
     0.384750215  0.623983285  0.375342660
     0.136542937  0.880397243  0.383349367
     0.012620391  0.497797472  0.499330946
     0.261833670  0.753339730  0.503135017
     0.254427352  0.505305643  0.754800709
     0.003352261  0.747485697  0.754000884
     0.131667668  0.628515075  0.623730230
     0.377937178  0.881174031  0.629053165
     0.374149254  0.631749553  0.878239183
     0.128365953  0.874208627  0.879057301
     0.496267678  0.009605604  0.005537164
     0.752393673  0.253447427  0.008226453
     0.761802347  0.008397946  0.254314762
     0.498274618  0.257860074  0.260838837
     0.629744031  0.131581469  0.136829012
     0.871231129  0.380772690  0.133528845
     0.887157148  0.129765319  0.379219771
     0.630439897  0.385393916  0.378247402
     0.501848354  0.005772765  0.499603313
     0.758220426  0.260535459  0.502807736
     0.744017196  0.000617874  0.760271227
     0.503967657  0.257205072  0.747647255
     0.623952809  0.134863461  0.623679321
     0.884195345  0.381743475  0.631369675
     0.867993079  0.128965198  0.882415430
     0.627284674  0.375310620  0.875092196
     0.500332385  0.499735207  0.004677863
     0.757007453  0.757603366  0.000733530
     0.752485014  0.507541451  0.255029331
     0.513633453  0.750791279  0.249867814
     0.635773252  0.623662536  0.120028816
     0.887577205  0.876740005  0.129143488
     0.878005068  0.626955445  0.381883133
     0.629336802  0.881750388  0.373032000
     0.506050485  0.503736724  0.504484136
     0.747670209  0.753299525  0.499986458
     0.754548110  0.502394193  0.752451498
     0.499054615  0.757433259  0.755588616
     0.628039534  0.628752187  0.635683110
     0.880264554  0.873264001  0.624318570
     0.883220064  0.622293668  0.876174177
     0.622565008  0.877786301  0.886382171

  ion indices of the primitive-cell ions
   primitive index   ion index
                 1           1
                 2           2
                 3           3
                 4           4
                 5           5
                 6           6
                 7           7
                 8           8
                 9           9
                10          10
                11          11
                12          12
                13          13
                14          14
                15          15
                16          16
                17          17
                18          18
                19          19
                20          20
                21          21
                22          22
                23          23
                24          24
                25          25
                26          26
                27          27
                28          28
                29          29
                30          30
                31          31
                32          32
                33          33
                34          34
                35          35
                36          36
                37          37
                38          38
                39          39
                40          40
                41          41
                42          42
                43          43
                44          44
                45          45
                46          46
                47          47
                48          48
                49          49
                50          50
                51          51
                52          52
                53          53
                54          54
                55          55
                56          56
                57          57
                58          58
                59          59
                60          60
                61          61
                62          62
                63          63
                64          64

----------------------------------------------------------------------------------------

 
 
 KPOINTS: K-Points                                

Automatic generation of k-mesh.
 Grid dimensions read from file:
 generate k-points for:    2    2    2

 Generating k-lattice:

  Cartesian coordinates                     Fractional coordinates (reciprocal lattice)
     0.045976045  0.000037890  0.000051930     0.500000000  0.000000000 -0.000000000
     0.000000000  0.045965306 -0.000030972     0.000000000  0.500000000  0.000000000
     0.000000000  0.000000000  0.045971961     0.000000000  0.000000000  0.500000000

  Length of vectors
     0.045976090  0.045965316  0.045971961

  Shift w.r.t. Gamma in fractional coordinates (k-lattice)
     0.500000000  0.500000000  0.500000000

 
 Subroutine IBZKPT returns following result:
 ===========================================
 
 Found      4 irreducible k-points:
 
 Following reciprocal coordinates:
            Coordinates               Weight
  0.250000  0.250000  0.250000      2.000000
  0.250000 -0.250000  0.250000      2.000000
 -0.250000  0.250000  0.250000      2.000000
 -0.250000 -0.250000  0.250000      2.000000
 
 Following cartesian coordinates:
            Coordinates               Weight
  0.022988  0.023002  0.022996      2.000000
  0.022988 -0.022964  0.023027      2.000000
 -0.022988  0.022964  0.022945      2.000000
 -0.022988 -0.023002  0.022976      2.000000
 


--------------------------------------------------------------------------------------------------------




 Dimension of arrays:
   k-points           NKPTS =      4   k-points in BZ     NKDIM =      4   number of bands    NBANDS=    161
   number of dos      NEDOS =    301   number of ions     NIONS =     64
   non local maximal  LDIM  =      4   non local SUM 2l+1 LMDIM =      8
   total plane-waves  NPLWV =  74088
   max r-space proj   IRMAX =    950   max aug-charges    IRDMAX=   2125
   dimension x,y,z NGX =    42 NGY =   42 NGZ =   42
   dimension x,y,z NGXF=    84 NGYF=   84 NGZF=   84
   support grid    NGXF=    84 NGYF=   84 NGZF=   84
   ions per type =              64
   NGX,Y,Z   is equivalent  to a cutoff of   6.42,  6.42,  6.42 a.u.
   NGXF,Y,Z  is equivalent  to a cutoff of  12.84, 12.84, 12.84 a.u.

 SYSTEM =  unknown system                          
 POSCAR =  Si                                      

 Startparameter for this run:
   NWRITE =      2    write-flag & timer
   PREC   = normal    normal or accurate (medium, high low for compatibility)
   ISTART =      1    job   : 0-new  1-cont  2-samecut
   ICHARG =      1    charge: 1-file 2-atom 10-const
   ISPIN  =      1    spin polarized calculation?
   LNONCOLLINEAR =      F non collinear calculations
   LSORBIT =      F    spin-orbit coupling
   INIWAV =      1    electr: 0-lowe 1-rand  2-diag
   LASPH  =      F    aspherical Exc in radial PAW
 Electronic Relaxation 1
   ENCUT  =  250.0 eV  18.37 Ry    4.29 a.u.  14.02 14.02 14.02*2*pi/ulx,y,z
   ENINI  =  250.0     initial cutoff
   ENAUG  =  322.1 eV  augmentation charge cutoff
   NELM   =     60;   NELMIN=  2; NELMDL=  0     # of ELM steps 
   EDIFF  = 0.1E-03   stopping-criterion for ELM
   LREAL  =      T    real-space projection
   NLSPLINE    = F    spline interpolate recip. space projectors
   LCOMPAT=      F    compatible to vasp.4.4
   GGA_COMPAT  = T    GGA compatible to vasp.4.4-vasp.4.6
   LMAXPAW     = -100 max onsite density
   LMAXMIX     =    2 max onsite mixed and CHGCAR
   VOSKOWN=      0    Vosko Wilk Nusair interpolation
   ROPT   =   -0.00050
 Ionic relaxation
   EDIFFG = 0.1E-02   stopping-criterion for IOM
   NSW    =      0    number of steps for IOM
   NBLOCK =      1;   KBLOCK =      1    inner block; outer block 
   IBRION =     -1    ionic relax: 0-MD 1-quasi-New 2-CG
   NFREE  =      0    steps in history (QN), initial steepest desc. (CG)
   ISIF   =      2    stress and relaxation
   IWAVPR =     10    prediction:  0-non 1-charg 2-wave 3-comb
   ISYM   =      2    0-nonsym 1-usesym 2-fastsym
   LCORR  =      T    Harris-Foulkes like correction to forces

   POTIM  = 0.5000    time-step for ionic-motion
   TEIN   =    0.0    initial temperature
   TEBEG  =    0.0;   TEEND  =   0.0 temperature during run
   SMASS  =  -3.00    Nose mass-parameter (am)
   estimated Nose-frequenzy (Omega)   =  0.10E-29 period in steps = 0.13E+47 mass=  -0.270E-26a.u.
   SCALEE = 1.0000    scale energy and forces
   NPACO  =    256;   APACO  = 10.0  distance and # of slots for P.C.
   PSTRESS=    0.0 pullay stress

  Mass of Ions in am
   POMASS =  28.09
  Ionic Valenz
   ZVAL   =   4.00
  Atomic Wigner-Seitz radii
   RWIGS  =  -1.00
  virtual crystal weights 
   VCA    =   1.00
   NELECT =     256.0000    total number of electrons
   NUPDOWN=      -1.0000    fix difference up-down

 DOS related values:
   EMIN   =  10.00;   EMAX   =-10.00  energy-range for DOS
   EFERMI =   0.00;   METHOD = LEGACY      
   ISMEAR =     0;   SIGMA  =   0.10  broadening in eV -4-tet -1-fermi 0-gaus

 Electronic relaxation 2 (details)
   IALGO  =     68    algorithm
   LDIAG  =      T    sub-space diagonalisation (order eigenvalues)
   LSUBROT=      F    optimize rotation matrix (better conditioning)
   TURBO    =      0    0=normal 1=particle mesh
   IRESTART =      0    0=no restart 2=restart with 2 vectors
   NREBOOT  =      0    no. of reboots
   NMIN     =      0    reboot dimension
   EREF     =   0.00    reference energy to select bands
   IMIX   =      4    mixing-type and parameters
     AMIX     =   0.40;   BMIX     =  1.00
     AMIX_MAG =   1.60;   BMIX_MAG =  1.00
     AMIN     =   0.10
     WC   =   100.;   INIMIX=   1;  MIXPRE=   1;  MAXMIX= -45

 Intra band minimization:
   WEIMIN = 0.0000     energy-eigenvalue tresh-hold
   EBREAK =  0.16E-06  absolut break condition
   DEPER  =   0.30     relativ break condition  

   TIME   =   0.40     timestep for ELM

  volume/ion in A,a.u.               =      20.10       135.67
  Fermi-wavevector in a.u.,A,eV,Ry     =   0.955733  1.806073 12.427900  0.913425
  Thomas-Fermi vector in A             =   2.084597
 
 Write flags
   LWAVE        =      T    write WAVECAR
   LDOWNSAMPLE  =      F    k-point downsampling of WAVECAR
   LCHARG       =      T    write CHGCAR
   LVTOT        =      F    write LOCPOT, total local potential
   LVHAR        =      F    write LOCPOT, Hartree potential only
   LELF         =      F    write electronic localiz. function (ELF)
   LORBIT       =      0    0 simple, 1 ext, 2 COOP (PROOUT), +10 PAW based schemes


 Dipole corrections
   LMONO  =      F    monopole corrections only (constant potential shift)
   LDIPOL =      F    correct potential (dipole corrections)
   IDIPOL =      0    1-x, 2-y, 3-z, 4-all directions 
   EPSILON=  1.0000000 bulk dielectric constant

 Exchange correlation treatment:
   GGA     =    --    GGA type
   LEXCH   =     8    internal setting for exchange type
   LIBXC   =     F    Libxc                    
   VOSKOWN =     0    Vosko Wilk Nusair interpolation
   LHFCALC =     F    Hartree Fock is set to
   LHFONE  =     F    Hartree Fock one center treatment
   AEXX    =    0.0000 exact exchange contribution

 Linear response parameters
   LEPSILON=     F    determine dielectric tensor
   LRPA    =     F    only Hartree local field effects (RPA)
   LNABLA  =     F    use nabla operator in PAW spheres
   LVEL    =     F    velocity operator in full k-point grid
   CSHIFT  =0.1000    complex shift for real part using Kramers Kronig
   OMEGAMAX=  -1.0    maximum frequency
   DEG_THRESHOLD= 0.2000000E-02 threshold for treating states as degnerate
   RTIME   =   -0.100 relaxation time in fs
  (WPLASMAI=    0.000 imaginary part of plasma frequency in eV, 0.658/RTIME)
   DFIELD  = 0.0000000 0.0000000 0.0000000 field for delta impulse in time
 
  Optional k-point grid parameters
   LKPOINTS_OPT  =     F    use optional k-point grid
   KPOINTS_OPT_MODE=     1    mode for optional k-point grid
 
 Orbital magnetization related:
   ORBITALMAG=     F  switch on orbital magnetization
   LCHIMAG   =     F  perturbation theory with respect to B field
   DQ        =  0.001000  dq finite difference perturbation B field
   LLRAUG    =     F  two centre corrections for induced B field
   LBONE     =     F  B-component reconstruction in AE one-centre
   LVGVCALC  =     T  calculate vGv susceptibility
   LVGVAPPL  =     F  apply vGv susceptibility instead of pGv for G=0

 Random number generation:
   RANDOM_GENERATOR = DEFAULT
   PCG_SEED         = not used


--------------------------------------------------------------------------------------------------------


 Static calculation
 charge density and potential will be updated during run
 non-spin polarized calculation
 RMM-DIIS sequential band-by-band and
  variant of blocked Davidson during initial phase
 perform sub-space diagonalisation
    before iterative eigenvector-optimisation
 modified Broyden-mixing scheme, WC =      100.0
 initial mixing is a Kerker type mixing with AMIX =  0.4000 and BMIX =      1.0000
 Hartree-type preconditioning will be used
 using additional bands           33
 real space projection scheme for non local part
 use partial core corrections
 calculate Harris-corrections to forces 
   (improved forces if not selfconsistent)
 use gradient corrections 
 use of overlap-Matrix (Vanderbilt PP)
 Gauss-broadening in eV      SIGMA  =   0.10


--------------------------------------------------------------------------------------------------------


  energy-cutoff  :      250.00
  volume of cell :     1286.63
      direct lattice vectors                 reciprocal lattice vectors
    10.875228550  0.000000000  0.000000000     0.091952091  0.000075780  0.000103859
    -0.008964660 10.877769410  0.000000000     0.000000000  0.091930612 -0.000061944
    -0.012290650  0.007328510 10.876194800     0.000000000  0.000000000  0.091943921

  length of vectors
    10.875228550 10.877773104 10.876204214     0.091952180  0.091930633  0.091943921


 
 old parameters found on file WAVECAR:
  energy-cutoff  :      250.00
  volume of cell :     1286.89
      direct lattice vectors                 reciprocal lattice vectors
    10.876013980  0.000000000  0.000000000     0.091945450  0.000076913  0.000104701
    -0.009099870 10.878358340  0.000000000     0.000000000  0.091925635 -0.000062085
    -0.012392090  0.007346060 10.876965380     0.000000000  0.000000000  0.091937408

  length of vectors

 
 k-points in units of 2pi/SCALE and weight: K-Points                                
   0.02298802  0.02300160  0.02299646       0.250
   0.02298802 -0.02296371  0.02302743       0.250
  -0.02298802  0.02296371  0.02294453       0.250
  -0.02298802 -0.02300160  0.02297550       0.250
 
 k-points in reciprocal lattice and weights: K-Points                                
   0.25000000  0.25000000  0.25000000       0.250
   0.25000000 -0.25000000  0.25000000       0.250
  -0.25000000  0.25000000  0.25000000       0.250
  -0.25000000 -0.25000000  0.25000000       0.250
 
 position of ions in fractional coordinates (direct lattice) 
   0.99924370  0.00610149  0.00119763
   0.26181119  0.25334840  0.00279840
   0.25307081  0.00147117  0.25611271
   0.00234556  0.25484371  0.24997163
   0.13178569  0.13095160  0.12517016
   0.37609291  0.37997111  0.13135242
   0.36941291  0.13251357  0.38348371
   0.13565041  0.37397874  0.37075637
   0.00835846  0.00908291  0.50621577
   0.25058923  0.26101459  0.50913899
   0.25388521  0.00846988  0.74946267
   0.99620905  0.25369744  0.76382037
   0.12390654  0.13422173  0.63459459
   0.37944597  0.38601838  0.62885001
   0.37930306  0.13561382  0.86957637
   0.13400306  0.37867662  0.88044219
   0.00531514  0.49860164  0.01022375
   0.25316935  0.74661536  0.00650462
   0.26122149  0.50163248  0.25613831
   0.01219277  0.75704788  0.26016372
   0.13401828  0.62310304  0.13568771
   0.37423764  0.87050938  0.13107921
   0.38475022  0.62398328  0.37534266
   0.13654294  0.88039724  0.38334937
   0.01262039  0.49779747  0.49933095
   0.26183367  0.75333973  0.50313502
   0.25442735  0.50530564  0.75480071
   0.00335226  0.74748570  0.75400088
   0.13166767  0.62851508  0.62373023
   0.37793718  0.88117403  0.62905316
   0.37414925  0.63174955  0.87823918
   0.12836595  0.87420863  0.87905730
   0.49626768  0.00960560  0.00553716
   0.75239367  0.25344743  0.00822645
   0.76180235  0.00839795  0.25431476
   0.49827462  0.25786007  0.26083884
   0.62974403  0.13158147  0.13682901
   0.87123113  0.38077269  0.13352885
   0.88715715  0.12976532  0.37921977
   0.63043990  0.38539392  0.37824740
   0.50184835  0.00577276  0.49960331
   0.75822043  0.26053546  0.50280774
   0.74401720  0.00061787  0.76027123
   0.50396766  0.25720507  0.74764726
   0.62395281  0.13486346  0.62367932
   0.88419535  0.38174347  0.63136968
   0.86799308  0.12896520  0.88241543
   0.62728467  0.37531062  0.87509220
   0.50033239  0.49973521  0.00467786
   0.75700745  0.75760337  0.00073353
   0.75248501  0.50754145  0.25502933
   0.51363345  0.75079128  0.24986781
   0.63577325  0.62366254  0.12002882
   0.88757721  0.87674001  0.12914349
   0.87800507  0.62695544  0.38188313
   0.62933680  0.88175039  0.37303200
   0.50605049  0.50373672  0.50448414
   0.74767021  0.75329953  0.49998646
   0.75454811  0.50239419  0.75245150
   0.49905461  0.75743326  0.75558862
   0.62803953  0.62875219  0.63568311
   0.88026455  0.87326400  0.62431857
   0.88322006  0.62229367  0.87617418
   0.62256501  0.87778630  0.88638217
 
 position of ions in cartesian coordinates  (Angst):
  10.86693424  0.06637935  0.01302565
   2.84495094  2.75588594  0.03043597
   2.74904195  0.01788000  2.78553176
   0.02015157  2.77396302  2.71874018
   1.43048716  1.42537864  1.36137502
   4.08507566  4.13420072  1.42861447
   4.01154861  1.44426244  4.17084354
   1.46731973  4.07077157  4.03241855
   0.08459698  0.10251166  5.50570135
   2.71661755  2.84298776  5.53749482
   2.75177240  0.09762584  8.15130199
  10.82233889  2.76525994  8.30745918
   1.33850914  1.46468362  6.90197443
   4.11537215  4.20362750  6.83949519
   4.11310412  1.48154861  9.45768200
   1.44309799  4.12560933  9.57586079
   0.05320790  5.42374861  0.11119547
   2.74650139  8.12155744  0.07074550
   2.83319833  5.45851958  2.78581014
   0.12261491  8.23689889  2.82959125
   1.45022587  6.77896555  1.47576592
   4.06050497  9.47016089  1.42564307
   4.17403952  6.79029699  4.08229989
   1.47233157  9.57956758  4.16938239
   0.12664995  5.41858546  5.43082064
   2.83456371  8.19834310  5.47219446
   2.75314872  5.50212983  8.20935955
   0.02048849  8.13650275  8.20066049
   1.41861551  6.84141307  6.78381148
   4.09452229  9.58981794  6.84170476
   4.05250110  6.87846215  9.55190043
   1.37736791  9.51588204  9.56079845
   5.39687025  0.10452812  0.06022327
   8.18007997  2.75700296  0.08947251
   8.28157366  0.09321467  2.76597689
   5.41333284  2.80685399  2.83693400
   6.84574896  1.43231563  1.48817899
   9.46978299  4.14293609  1.45228573
   9.64221259  1.41433633  4.12446810
   6.84807413  4.19499814  4.11389243
   5.45152335  0.06645615  5.43378296
   8.23730498  2.83772948  5.46863488
   8.08200729  0.01229275  8.26885797
   5.46926863  2.80329661  8.13155719
   6.77675497  1.47158427  6.78325779
   9.60464432  4.15714449  6.86689958
   9.42762153  1.40932048  9.59732211
   6.80774421  4.08895550  9.51767319
   5.43669159  5.43603863  0.05087735
   8.22582839  8.24104010  0.00797801
   8.17576209  5.52278785  2.77374868
   5.57607957  8.16876557  2.71761102
   6.90711327  6.78493689  1.30545678
   9.64315803  9.53792204  1.40458973
   9.53819175  6.82267539  4.15343535
   6.83169216  9.59421117  4.05716870
   5.49269842  5.48322904  5.48686774
   8.11818617  8.19788269  5.43795011
   8.19213124  5.47044253  8.18380907
   5.41125619  8.24472167  8.21792898
   6.81662396  6.84407992  6.91381333
   9.55757641  9.50373976  6.79021038
   9.58887266  6.77558808  9.52944103
   6.75177348  9.55485283  9.64046516
 


--------------------------------------------------------------------------------------------------------


 k-point   1 :   0.2500 0.2500 0.2500  plane waves:   11547
 k-point   2 :   0.2500-0.2500 0.2500  plane waves:   11547
 k-point   3 :  -0.2500 0.2500 0.2500  plane waves:   11561
 k-point   4 :  -0.2500-0.2500 0.2500  plane waves:   11547

 maximum and minimum number of plane-waves per node :       425      398

 maximum number of plane-waves:     11561
 maximum index in each direction: 
   IXMAX=   14   IYMAX=   14   IZMAX=   13
   IXMIN=  -14   IYMIN=  -14   IZMIN=  -14


 real space projection operators:
  total allocation   :       3495.88 KBytes
  max/ min on nodes  :        172.75         77.94


 parallel 3D FFT for wavefunctions:
    minimum data exchange during FFTs selected (reduces bandwidth)
 parallel 3D FFT for charge:
    minimum data exchange during FFTs selected (reduces bandwidth)


 total amount of memory used by VASP MPI-rank0    37852. kBytes
=======================================================================

   base      :      30000. kBytes
   nonlr-proj:       1202. kBytes
   fftplans  :        841. kBytes
   grid      :       1174. kBytes
   one-center:          9. kBytes
   wavefun   :       4626. kBytes
 
     INWAV:  cpu time     19.4692: real time     19.5140
 Broyden mixing: mesh for mixing (old mesh)
   NGX = 29   NGY = 29   NGZ = 29
  (NGX  = 84   NGY  = 84   NGZ  = 84)
  gives a total of  24389 points

 initial charge density was supplied:
 number of electron     256.0000050 magnetization 
 keeping initial charge density in first step


--------------------------------------------------------------------------------------------------------


 Maximum index for non-local projection operator          114
 Maximum index for augmentation-charges          186 (set IRDMAX)


--------------------------------------------------------------------------------------------------------


 First call to EWALD:  gamma=   0.163
 Maximum number of real-space cells 3x 3x 3
 Maximum number of reciprocal cells 3x 3x 3

    FEWALD:  cpu time      0.1157: real time      0.1159


--------------------------------------- Ionic step        1  -------------------------------------------




--------------------------------------- Iteration      1(   1)  ---------------------------------------


    POTLOK:  cpu time      0.3802: real time      0.3814
    SETDIJ:  cpu time      0.1505: real time      0.1509
     EDDAV:  cpu time     36.8155: real time     36.8996
       DOS:  cpu time      0.1531: real time      0.1535
    CHARGE:  cpu time      1.8532: real time      1.8573
    MIXING:  cpu time      0.0239: real time      0.0239
    --------------------------------------------
      LOOP:  cpu time     39.3764: real time     39.4667

 eigenvalue-minimisations  :  1392
 total energy-change (2. order) :-0.3451867E+03  (-0.1225322E+00)
 number of electron     256.0000028 magnetization 
 augmentation part      -14.6479227 magnetization 

 Broyden mixing:
  rms(total) = 0.58318E-01    rms(broyden)= 0.58313E-01
  rms(prec ) = 0.60967E-01
  weight for this iteration     100.00

 Free energy of the ion-electron system (eV)
  ---------------------------------------------------
  alpha Z        PSCENC =       107.16654613
  Ewald energy   TEWEN  =     -7298.62717449
  -Hartree energ DENC   =      -482.47381018
  -exchange      EXHF   =         0.00000000
  -V(xc)+E(xc)   XCENC  =      -575.30820658
  PAW double counting   =     32022.57085364   -30903.83153798
  entropy T*S    EENTRO =        -0.00000000
  eigenvalues    EBANDS =       189.36464765
  atomic energy  EATOM  =      6595.95197522
  Solvation  Ediel_sol  =         0.00000000
  ---------------------------------------------------
  free energy    TOTEN  =      -345.18670660 eV

  energy without entropy =     -345.18670660  energy(sigma->0) =     -345.18670660


--------------------------------------------------------------------------------------------------------




--------------------------------------- Iteration      1(   2)  ---------------------------------------


    POTLOK:  cpu time      0.2475: real time      0.2484
    SETDIJ:  cpu time      0.0393: real time      0.0394
    EDDIAG:  cpu time      6.2561: real time      6.2705
  RMM-DIIS:  cpu time     24.9455: real time     25.0015
    ORTHCH:  cpu time      0.3692: real time      0.3700
       DOS:  cpu time      0.1167: real time      0.1170
    CHARGE:  cpu time      2.2637: real time      2.2689
    MIXING:  cpu time      0.2761: real time      0.5241
    --------------------------------------------
      LOOP:  cpu time     34.5141: real time     34.8397

 eigenvalue-minimisations  :  1289
 total energy-change (2. order) :-0.6379736E-02  (-0.6840058E-02)
 number of electron     256.0000028 magnetization 
 augmentation part      -14.6482687 magnetization 

 Broyden mixing:
  rms(total) = 0.21299E-01    rms(broyden)= 0.21297E-01
  rms(prec ) = 0.25227E-01
  weight for this iteration     100.00

 eigenvalues of (default mixing * dielectric matrix)
  average eigenvalue GAMMA=   1.3353
  1.3353

 Free energy of the ion-electron system (eV)
  ---------------------------------------------------
  alpha Z        PSCENC =       107.16654613
  Ewald energy   TEWEN  =     -7298.62717449
  -Hartree energ DENC   =      -482.42894815
  -exchange      EXHF   =         0.00000000
  -V(xc)+E(xc)   XCENC  =      -575.30764464
  PAW double counting   =     32044.60678774   -30925.87135572
  entropy T*S    EENTRO =        -0.00000000
  eigenvalues    EBANDS =       189.31672757
  atomic energy  EATOM  =      6595.95197522
  Solvation  Ediel_sol  =         0.00000000
  ---------------------------------------------------
  free energy    TOTEN  =      -345.19308633 eV

  energy without entropy =     -345.19308633  energy(sigma->0) =     -345.19308633


--------------------------------------------------------------------------------------------------------




--------------------------------------- Iteration      1(   3)  ---------------------------------------


    POTLOK:  cpu time      0.0857: real time      0.0871
    SETDIJ:  cpu time      0.0019: real time      0.0019
    EDDIAG:  cpu time     10.6198: real time     10.6441
  RMM-DIIS:  cpu time     19.7229: real time     19.7679
    ORTHCH:  cpu time      0.3811: real time      0.3820
       DOS:  cpu time      0.0383: real time      0.0383
    CHARGE:  cpu time      2.0410: real time      2.0457
    MIXING:  cpu time      0.3271: real time      0.3279
    --------------------------------------------
      LOOP:  cpu time     33.2179: real time     33.2950

 eigenvalue-minimisations  :  1507
 total energy-change (2. order) :-0.5797782E-03  (-0.1024411E-02)
 number of electron     256.0000028 magnetization 
 augmentation part      -14.6485497 magnetization 

 Broyden mixing:
  rms(total) = 0.95023E-02    rms(broyden)= 0.95016E-02
  rms(prec ) = 0.11533E-01
  weight for this iteration     100.00

 eigenvalues of (default mixing * dielectric matrix)
  average eigenvalue GAMMA=   1.6597
  1.6597  1.6597

 Free energy of the ion-electron system (eV)
  ---------------------------------------------------
  alpha Z        PSCENC =       107.16654613
  Ewald energy   TEWEN  =     -7298.62717449
  -Hartree energ DENC   =      -482.40477720
  -exchange      EXHF   =         0.00000000
  -V(xc)+E(xc)   XCENC  =      -575.30651003
  PAW double counting   =     32055.62175369   -30936.89024103
  entropy T*S    EENTRO =        -0.00000000
  eigenvalues    EBANDS =       189.29476161
  atomic energy  EATOM  =      6595.95197522
  Solvation  Ediel_sol  =         0.00000000
  ---------------------------------------------------
  free energy    TOTEN  =      -345.19366611 eV

  energy without entropy =     -345.19366611  energy(sigma->0) =     -345.19366611


--------------------------------------------------------------------------------------------------------




--------------------------------------- Iteration      1(   4)  ---------------------------------------


    POTLOK:  cpu time      0.1397: real time      0.1401
    SETDIJ:  cpu time      0.0653: real time      0.0654
    EDDIAG:  cpu time      7.1015: real time      7.1180
  RMM-DIIS:  cpu time     27.7058: real time     27.7687
    ORTHCH:  cpu time      0.4009: real time      0.4018
       DOS:  cpu time      0.1247: real time      0.1250
    CHARGE:  cpu time      2.4835: real time      2.4893
    MIXING:  cpu time      0.0003: real time      0.0003
    --------------------------------------------
      LOOP:  cpu time     38.0219: real time     38.1087

 eigenvalue-minimisations  :  1562
 total energy-change (2. order) :-0.7246403E-04  (-0.1887049E-03)
 number of electron     256.0000028 magnetization 
 augmentation part      -14.6486724 magnetization 

 Broyden mixing:
  rms(total) = 0.46538E-02    rms(broyden)= 0.46535E-02
  rms(prec ) = 0.51470E-02
  weight for this iteration     100.00

 eigenvalues of (default mixing * dielectric matrix)
  average eigenvalue GAMMA=   1.7926
  1.0353  2.3714  1.9712

 Free energy of the ion-electron system (eV)
  ---------------------------------------------------
  alpha Z        PSCENC =       107.16654613
  Ewald energy   TEWEN  =     -7298.62717449
  -Hartree energ DENC   =      -482.39660341
  -exchange      EXHF   =         0.00000000
  -V(xc)+E(xc)   XCENC  =      -575.30531021
  PAW double counting   =     32056.09702007   -30937.36847212
  entropy T*S    EENTRO =        -0.00000000
  eigenvalues    EBANDS =       189.28828024
  atomic energy  EATOM  =      6595.95197522
  Solvation  Ediel_sol  =         0.00000000
  ---------------------------------------------------
  free energy    TOTEN  =      -345.19373858 eV

  energy without entropy =     -345.19373858  energy(sigma->0) =     -345.19373858


--------------------------------------------------------------------------------------------------------




--------------------------------------- Iteration      1(   5)  ---------------------------------------


    POTLOK:  cpu time      0.1205: real time      0.1219
    SETDIJ:  cpu time      0.0752: real time      0.0754
    EDDIAG:  cpu time      5.9417: real time      5.9554
  RMM-DIIS:  cpu time     19.7626: real time     19.8075
    ORTHCH:  cpu time      0.3128: real time      0.3135
       DOS:  cpu time      0.0686: real time      0.0687
    --------------------------------------------
      LOOP:  cpu time     26.2812: real time     26.3424

 eigenvalue-minimisations  :  1155
 total energy-change (2. order) :-0.2820325E-04  (-0.3474794E-04)
 number of electron     256.0000028 magnetization 
 augmentation part      -14.6486724 magnetization 

 Free energy of the ion-electron system (eV)
  ---------------------------------------------------
  alpha Z        PSCENC =       107.16654613
  Ewald energy   TEWEN  =     -7298.62717449
  -Hartree energ DENC   =      -482.39452221
  -exchange      EXHF   =         0.00000000
  -V(xc)+E(xc)   XCENC  =      -575.30475542
  PAW double counting   =     32052.94396296   -30934.21689630
  entropy T*S    EENTRO =        -0.00000000
  eigenvalues    EBANDS =       189.28709734
  atomic energy  EATOM  =      6595.95197522
  Solvation  Ediel_sol  =         0.00000000
  ---------------------------------------------------
  free energy    TOTEN  =      -345.19376678 eV

  energy without entropy =     -345.19376678  energy(sigma->0) =     -345.19376678


--------------------------------------------------------------------------------------------------------




 average (electrostatic) potential at core
  the test charge radii are     0.9892
  (the norm of the test charge is              1.0000)
       1 -83.2361       2 -83.3136       3 -83.2801       4 -83.3214       5 -83.3219
       6 -83.3018       7 -83.2944       8 -83.3149       9 -83.2952      10 -83.3353
      11 -83.3579      12 -83.3270      13 -83.3068      14 -83.2994      15 -83.3311
      16 -83.3358      17 -83.3409      18 -83.2677      19 -83.3142      20 -83.3396
      21 -83.3055      22 -83.2969      23 -83.3550      24 -83.2526      25 -83.3194
      26 -83.3271      27 -83.2928      28 -83.2504      29 -83.2516      30 -83.3197
      31 -83.2796      32 -83.3361      33 -83.3160      34 -83.2754      35 -83.3082
      36 -83.3187      37 -83.3168      38 -83.3065      39 -83.2995      40 -83.2990
      41 -83.2808      42 -83.3253      43 -83.2916      44 -83.2554      45 -83.2831
      46 -83.3003      47 -83.2694      48 -83.3358      49 -83.3489      50 -83.3222
      51 -83.2686      52 -83.3111      53 -83.2798      54 -83.3088      55 -83.3225
      56 -83.3181      57 -83.2645      58 -83.2849      59 -83.3214      60 -83.3243
      61 -83.3348      62 -83.3144      63 -83.2923      64 -83.2469
 
 
 
 E-fermi :   6.0309     XC(G=0):  -9.3958     alpha+bet :-11.9304

 Fermi energy:         6.0308678860

 k-point     1 :       0.2500    0.2500    0.2500
  band No.  band energies     occupation 
      1      -5.9692      2.00000
      2      -5.4621      2.00000
      3      -5.4338      2.00000
      4      -5.3868      2.00000
      5      -4.9475      2.00000
      6      -4.9280      2.00000
      7      -4.8595      2.00000
      8      -4.4660      2.00000
      9      -4.4088      2.00000
     10      -4.3869      2.00000
     11      -4.3352      2.00000
     12      -4.0132      2.00000
     13      -3.9905      2.00000
     14      -3.9720      2.00000
     15      -3.9473      2.00000
     16      -3.9080      2.00000
     17      -3.8673      2.00000
     18      -3.7631      2.00000
     19      -3.7200      2.00000
     20      -3.6731      2.00000
     21      -3.2631      2.00000
     22      -3.2172      2.00000
     23      -3.1865      2.00000
     24      -2.9333      2.00000
     25      -2.8923      2.00000
     26      -2.8345      2.00000
     27      -2.7375      2.00000
     28      -2.7261      2.00000
     29      -2.6895      2.00000
     30      -2.6572      2.00000
     31      -2.6296      2.00000
     32      -2.5930      2.00000
     33      -1.1999      2.00000
     34      -1.1765      2.00000
     35      -1.1704      2.00000
     36      -1.1410      2.00000
     37      -1.1162      2.00000
     38      -1.0956      2.00000
     39      -1.0544      2.00000
     40      -1.0207      2.00000
     41      -1.0024      2.00000
     42      -0.9574      2.00000
     43      -0.9240      2.00000
     44      -0.8868      2.00000
     45      -0.8703      2.00000
     46      -0.8517      2.00000
     47      -0.8099      2.00000
     48      -0.1756      2.00000
     49      -0.0837      2.00000
     50      -0.0618      2.00000
     51      -0.0401      2.00000
     52      -0.0226      2.00000
     53       0.0001      2.00000
     54       0.0229      2.00000
     55       0.8086      2.00000
     56       0.8303      2.00000
     57       0.8831      2.00000
     58       1.1430      2.00000
     59       1.1675      2.00000
     60       1.1780      2.00000
     61       1.6986      2.00000
     62       1.7212      2.00000
     63       1.7322      2.00000
     64       1.7381      2.00000
     65       1.7523      2.00000
     66       1.7703      2.00000
     67       1.8192      2.00000
     68       1.8315      2.00000
     69       1.8455      2.00000
     70       2.3278      2.00000
     71       2.3375      2.00000
     72       2.3562      2.00000
     73       2.4247      2.00000
     74       2.4455      2.00000
     75       2.4649      2.00000
     76       2.4770      2.00000
     77       2.4993      2.00000
     78       2.5201      2.00000
     79       2.5747      2.00000
     80       2.6015      2.00000
     81       2.6267      2.00000
     82       2.7974      2.00000
     83       2.8285      2.00000
     84       2.8351      2.00000
     85       2.8601      2.00000
     86       2.8789      2.00000
     87       2.9005      2.00000
     88       3.0730      2.00000
     89       3.0967      2.00000
     90       3.1267      2.00000
     91       3.1450      2.00000
     92       3.1690      2.00000
     93       3.1926      2.00000
     94       3.4257      2.00000
     95       3.4449      2.00000
     96       3.4584      2.00000
     97       3.5063      2.00000
     98       3.5305      2.00000
     99       3.5532      2.00000
    100       3.5757      2.00000
    101       3.6194      2.00000
    102       3.6323      2.00000
    103       3.8049      2.00000
    104       3.8237      2.00000
    105       3.8416      2.00000
    106       3.8889      2.00000
    107       3.8924      2.00000
    108       3.9051      2.00000
    109       3.9248      2.00000
    110       3.9420      2.00000
    111       3.9661      2.00000
    112       4.1698      2.00000
    113       4.2528      2.00000
    114       4.2856      2.00000
    115       4.3061      2.00000
    116       4.4716      2.00000
    117       4.4959      2.00000
    118       4.5058      2.00000
    119       4.5354      2.00000
    120       4.5549      2.00000
    121       4.5760      2.00000
    122       4.7028      2.00000
    123       4.7400      2.00000
    124       5.0326      2.00000
    125       5.0772      2.00000
    126       5.0889      2.00000
    127       5.5163      2.00000
    128       5.5567      2.00000
    129       6.6451      0.00000
    130       6.7020      0.00000
    131       6.7244      0.00000
    132       7.1123      0.00000
    133       7.1457      0.00000
    134       7.1596      0.00000
    135       7.4087      0.00000
    136       7.6008      0.00000
    137       7.6187      0.00000
    138       7.6411      0.00000
    139       7.6997      0.00000
    140       7.7518      0.00000
    141       7.7846      0.00000
    142       7.9086      0.00000
    143       7.9333      0.00000
    144       7.9490      0.00000
    145       7.9705      0.00000
    146       7.9879      0.00000
    147       7.9927      0.00000
    148       8.1185      0.00000
    149       8.1353      0.00000
    150       8.1490      0.00000
    151       8.1831      0.00000
    152       8.1991      0.00000
    153       8.2276      0.00000
    154       8.2760      0.00000
    155       8.4820      0.00000
    156       8.4901      0.00000
    157       8.4985      0.00000
    158       8.5365      0.00000
    159       8.6125      0.00000
    160       8.6308      0.00000
    161       8.6835      0.00000

 k-point     2 :       0.2500   -0.2500    0.2500
  band No.  band energies     occupation 
      1      -5.9696      2.00000
      2      -5.4617      2.00000
      3      -5.4338      2.00000
      4      -5.3844      2.00000
      5      -4.9465      2.00000
      6      -4.9256      2.00000
      7      -4.8649      2.00000
      8      -4.4765      2.00000
      9      -4.4050      2.00000
     10      -4.3962      2.00000
     11      -4.3328      2.00000
     12      -4.0282      2.00000
     13      -3.9817      2.00000
     14      -3.9532      2.00000
     15      -3.9156      2.00000
     16      -3.9131      2.00000
     17      -3.8779      2.00000
     18      -3.7544      2.00000
     19      -3.7218      2.00000
     20      -3.6820      2.00000
     21      -3.2726      2.00000
     22      -3.2370      2.00000
     23      -3.1842      2.00000
     24      -2.9024      2.00000
     25      -2.8921      2.00000
     26      -2.8546      2.00000
     27      -2.7533      2.00000
     28      -2.7090      2.00000
     29      -2.6805      2.00000
     30      -2.6576      2.00000
     31      -2.6479      2.00000
     32      -2.5809      2.00000
     33      -1.1946      2.00000
     34      -1.1813      2.00000
     35      -1.1672      2.00000
     36      -1.1525      2.00000
     37      -1.1440      2.00000
     38      -1.1055      2.00000
     39      -1.0568      2.00000
     40      -1.0386      2.00000
     41      -0.9990      2.00000
     42      -0.9429      2.00000
     43      -0.9161      2.00000
     44      -0.8867      2.00000
     45      -0.8629      2.00000
     46      -0.8261      2.00000
     47      -0.7835      2.00000
     48      -0.1562      2.00000
     49      -0.0911      2.00000
     50      -0.0665      2.00000
     51      -0.0434      2.00000
     52      -0.0340      2.00000
     53      -0.0235      2.00000
     54       0.0231      2.00000
     55       0.8146      2.00000
     56       0.8548      2.00000
     57       0.8868      2.00000
     58       1.1394      2.00000
     59       1.1656      2.00000
     60       1.1807      2.00000
     61       1.6997      2.00000
     62       1.7125      2.00000
     63       1.7255      2.00000
     64       1.7416      2.00000
     65       1.7557      2.00000
     66       1.7701      2.00000
     67       1.8112      2.00000
     68       1.8212      2.00000
     69       1.8370      2.00000
     70       2.3299      2.00000
     71       2.3493      2.00000
     72       2.3652      2.00000
     73       2.4180      2.00000
     74       2.4492      2.00000
     75       2.4632      2.00000
     76       2.4761      2.00000
     77       2.4887      2.00000
     78       2.5023      2.00000
     79       2.5806      2.00000
     80       2.5909      2.00000
     81       2.5999      2.00000
     82       2.7973      2.00000
     83       2.8260      2.00000
     84       2.8481      2.00000
     85       2.8617      2.00000
     86       2.8736      2.00000
     87       2.9048      2.00000
     88       3.0747      2.00000
     89       3.1040      2.00000
     90       3.1129      2.00000
     91       3.1338      2.00000
     92       3.1529      2.00000
     93       3.1851      2.00000
     94       3.4369      2.00000
     95       3.4653      2.00000
     96       3.4985      2.00000
     97       3.5171      2.00000
     98       3.5475      2.00000
     99       3.5661      2.00000
    100       3.5930      2.00000
    101       3.5998      2.00000
    102       3.6378      2.00000
    103       3.8259      2.00000
    104       3.8478      2.00000
    105       3.8521      2.00000
    106       3.8763      2.00000
    107       3.8890      2.00000
    108       3.9135      2.00000
    109       3.9214      2.00000
    110       3.9315      2.00000
    111       3.9543      2.00000
    112       4.1993      2.00000
    113       4.2402      2.00000
    114       4.2508      2.00000
    115       4.2883      2.00000
    116       4.4648      2.00000
    117       4.4878      2.00000
    118       4.5081      2.00000
    119       4.5452      2.00000
    120       4.5758      2.00000
    121       4.6113      2.00000
    122       4.7074      2.00000
    123       4.7357      2.00000
    124       5.0128      2.00000
    125       5.0383      2.00000
    126       5.0917      2.00000
    127       5.4955      2.00000
    128       5.5503      2.00000
    129       6.6542      0.00000
    130       6.6826      0.00000
    131       6.6947      0.00000
    132       7.1125      0.00000
    133       7.1404      0.00000
    134       7.1827      0.00000
    135       7.3974      0.00000
    136       7.5978      0.00000
    137       7.6194      0.00000
    138       7.6364      0.00000
    139       7.7343      0.00000
    140       7.7530      0.00000
    141       7.7707      0.00000
    142       7.9005      0.00000
    143       7.9284      0.00000
    144       7.9495      0.00000
    145       7.9634      0.00000
    146       7.9846      0.00000
    147       8.0064      0.00000
    148       8.1098      0.00000
    149       8.1411      0.00000
    150       8.1711      0.00000
    151       8.1800      0.00000
    152       8.2035      0.00000
    153       8.2157      0.00000
    154       8.2618      0.00000
    155       8.4733      0.00000
    156       8.4895      0.00000
    157       8.5015      0.00000
    158       8.5652      0.00000
    159       8.6306      0.00000
    160       8.6590      0.00000
    161       8.6974      0.00000

 k-point     3 :      -0.2500    0.2500    0.2500
  band No.  band energies     occupation 
      1      -5.9707      2.00000
      2      -5.4489      2.00000
      3      -5.4313      2.00000
      4      -5.3985      2.00000
      5      -4.9380      2.00000
      6      -4.9098      2.00000
      7      -4.8905      2.00000
      8      -4.4844      2.00000
      9      -4.4047      2.00000
     10      -4.3849      2.00000
     11      -4.3471      2.00000
     12      -4.0139      2.00000
     13      -3.9934      2.00000
     14      -3.9494      2.00000
     15      -3.9273      2.00000
     16      -3.9152      2.00000
     17      -3.8939      2.00000
     18      -3.7313      2.00000
     19      -3.6849      2.00000
     20      -3.6655      2.00000
     21      -3.2740      2.00000
     22      -3.2498      2.00000
     23      -3.2237      2.00000
     24      -2.9528      2.00000
     25      -2.8738      2.00000
     26      -2.8475      2.00000
     27      -2.7447      2.00000
     28      -2.6885      2.00000
     29      -2.6715      2.00000
     30      -2.6509      2.00000
     31      -2.6434      2.00000
     32      -2.5904      2.00000
     33      -1.2087      2.00000
     34      -1.1757      2.00000
     35      -1.1602      2.00000
     36      -1.1382      2.00000
     37      -1.1275      2.00000
     38      -1.1108      2.00000
     39      -1.0745      2.00000
     40      -1.0471      2.00000
     41      -1.0266      2.00000
     42      -0.9466      2.00000
     43      -0.9272      2.00000
     44      -0.8933      2.00000
     45      -0.8504      2.00000
     46      -0.8019      2.00000
     47      -0.7655      2.00000
     48      -0.1345      2.00000
     49      -0.0985      2.00000
     50      -0.0841      2.00000
     51      -0.0487      2.00000
     52      -0.0370      2.00000
     53      -0.0143      2.00000
     54      -0.0055      2.00000
     55       0.8199      2.00000
     56       0.8674      2.00000
     57       0.9066      2.00000
     58       1.1504      2.00000
     59       1.1808      2.00000
     60       1.1869      2.00000
     61       1.6912      2.00000
     62       1.7156      2.00000
     63       1.7348      2.00000
     64       1.7451      2.00000
     65       1.7610      2.00000
     66       1.7720      2.00000
     67       1.8017      2.00000
     68       1.8104      2.00000
     69       1.8347      2.00000
     70       2.3293      2.00000
     71       2.3500      2.00000
     72       2.3646      2.00000
     73       2.4053      2.00000
     74       2.4296      2.00000
     75       2.4576      2.00000
     76       2.4722      2.00000
     77       2.4867      2.00000
     78       2.5087      2.00000
     79       2.5678      2.00000
     80       2.5864      2.00000
     81       2.6101      2.00000
     82       2.8042      2.00000
     83       2.8191      2.00000
     84       2.8294      2.00000
     85       2.8482      2.00000
     86       2.8720      2.00000
     87       2.8981      2.00000
     88       3.0823      2.00000
     89       3.0911      2.00000
     90       3.1031      2.00000
     91       3.1268      2.00000
     92       3.1386      2.00000
     93       3.1649      2.00000
     94       3.4305      2.00000
     95       3.4690      2.00000
     96       3.4858      2.00000
     97       3.5146      2.00000
     98       3.5535      2.00000
     99       3.5797      2.00000
    100       3.5932      2.00000
    101       3.5972      2.00000
    102       3.6172      2.00000
    103       3.8268      2.00000
    104       3.8632      2.00000
    105       3.8750      2.00000
    106       3.9014      2.00000
    107       3.9099      2.00000
    108       3.9263      2.00000
    109       3.9396      2.00000
    110       3.9504      2.00000
    111       3.9718      2.00000
    112       4.1928      2.00000
    113       4.2405      2.00000
    114       4.2532      2.00000
    115       4.2745      2.00000
    116       4.4685      2.00000
    117       4.4935      2.00000
    118       4.5087      2.00000
    119       4.5623      2.00000
    120       4.5997      2.00000
    121       4.6452      2.00000
    122       4.7064      2.00000
    123       4.7369      2.00000
    124       5.0051      2.00000
    125       5.0255      2.00000
    126       5.0564      2.00000
    127       5.4945      2.00000
    128       5.5271      2.00000
    129       6.6332      0.00000
    130       6.6830      0.00000
    131       6.7169      0.00000
    132       7.0968      0.00000
    133       7.1432      0.00000
    134       7.1659      0.00000
    135       7.4109      0.00000
    136       7.6040      0.00000
    137       7.6286      0.00000
    138       7.6460      0.00000
    139       7.7115      0.00000
    140       7.7392      0.00000
    141       7.7630      0.00000
    142       7.9037      0.00000
    143       7.9269      0.00000
    144       7.9546      0.00000
    145       7.9613      0.00000
    146       7.9869      0.00000
    147       8.0029      0.00000
    148       8.1173      0.00000
    149       8.1397      0.00000
    150       8.1653      0.00000
    151       8.1800      0.00000
    152       8.1845      0.00000
    153       8.2190      0.00000
    154       8.2655      0.00000
    155       8.4785      0.00000
    156       8.4927      0.00000
    157       8.5121      0.00000
    158       8.5650      0.00000
    159       8.6327      0.00000
    160       8.6500      0.00000
    161       8.6617      0.00000

 k-point     4 :      -0.2500   -0.2500    0.2500
  band No.  band energies     occupation 
      1      -5.9700      2.00000
      2      -5.4466      2.00000
      3      -5.4335      2.00000
      4      -5.4019      2.00000
      5      -4.9351      2.00000
      6      -4.9121      2.00000
      7      -4.8923      2.00000
      8      -4.4813      2.00000
      9      -4.3976      2.00000
     10      -4.3800      2.00000
     11      -4.3407      2.00000
     12      -4.0126      2.00000
     13      -3.9703      2.00000
     14      -3.9578      2.00000
     15      -3.9356      2.00000
     16      -3.9299      2.00000
     17      -3.8867      2.00000
     18      -3.7587      2.00000
     19      -3.7078      2.00000
     20      -3.6745      2.00000
     21      -3.2490      2.00000
     22      -3.2331      2.00000
     23      -3.2114      2.00000
     24      -2.9322      2.00000
     25      -2.8840      2.00000
     26      -2.8551      2.00000
     27      -2.7289      2.00000
     28      -2.7056      2.00000
     29      -2.6795      2.00000
     30      -2.6600      2.00000
     31      -2.6216      2.00000
     32      -2.6109      2.00000
     33      -1.1964      2.00000
     34      -1.1813      2.00000
     35      -1.1661      2.00000
     36      -1.1488      2.00000
     37      -1.1282      2.00000
     38      -1.0964      2.00000
     39      -1.0735      2.00000
     40      -1.0356      2.00000
     41      -0.9969      2.00000
     42      -0.9466      2.00000
     43      -0.9177      2.00000
     44      -0.8981      2.00000
     45      -0.8537      2.00000
     46      -0.8314      2.00000
     47      -0.7981      2.00000
     48      -0.1625      2.00000
     49      -0.0722      2.00000
     50      -0.0561      2.00000
     51      -0.0480      2.00000
     52      -0.0381      2.00000
     53      -0.0197      2.00000
     54       0.0165      2.00000
     55       0.8266      2.00000
     56       0.8501      2.00000
     57       0.8632      2.00000
     58       1.1461      2.00000
     59       1.1746      2.00000
     60       1.1863      2.00000
     61       1.6949      2.00000
     62       1.7197      2.00000
     63       1.7295      2.00000
     64       1.7415      2.00000
     65       1.7474      2.00000
     66       1.7709      2.00000
     67       1.8053      2.00000
     68       1.8266      2.00000
     69       1.8335      2.00000
     70       2.3367      2.00000
     71       2.3545      2.00000
     72       2.3615      2.00000
     73       2.4227      2.00000
     74       2.4299      2.00000
     75       2.4516      2.00000
     76       2.4813      2.00000
     77       2.4947      2.00000
     78       2.5104      2.00000
     79       2.5745      2.00000
     80       2.5979      2.00000
     81       2.6193      2.00000
     82       2.8089      2.00000
     83       2.8372      2.00000
     84       2.8404      2.00000
     85       2.8514      2.00000
     86       2.8682      2.00000
     87       2.8989      2.00000
     88       3.0635      2.00000
     89       3.1025      2.00000
     90       3.1130      2.00000
     91       3.1364      2.00000
     92       3.1566      2.00000
     93       3.1850      2.00000
     94       3.4299      2.00000
     95       3.4729      2.00000
     96       3.4841      2.00000
     97       3.5089      2.00000
     98       3.5353      2.00000
     99       3.5565      2.00000
    100       3.5800      2.00000
    101       3.6060      2.00000
    102       3.6332      2.00000
    103       3.8136      2.00000
    104       3.8521      2.00000
    105       3.8731      2.00000
    106       3.8845      2.00000
    107       3.8917      2.00000
    108       3.9130      2.00000
    109       3.9253      2.00000
    110       3.9380      2.00000
    111       3.9578      2.00000
    112       4.1982      2.00000
    113       4.2386      2.00000
    114       4.2603      2.00000
    115       4.2746      2.00000
    116       4.4768      2.00000
    117       4.4910      2.00000
    118       4.5136      2.00000
    119       4.5515      2.00000
    120       4.5687      2.00000
    121       4.5908      2.00000
    122       4.7056      2.00000
    123       4.7494      2.00000
    124       5.0269      2.00000
    125       5.0374      2.00000
    126       5.0788      2.00000
    127       5.4991      2.00000
    128       5.5580      2.00000
    129       6.6528      0.00000
    130       6.6860      0.00000
    131       6.7036      0.00000
    132       7.1213      0.00000
    133       7.1298      0.00000
    134       7.1561      0.00000
    135       7.4138      0.00000
    136       7.6044      0.00000
    137       7.6113      0.00000
    138       7.6539      0.00000
    139       7.7136      0.00000
    140       7.7460      0.00000
    141       7.7635      0.00000
    142       7.9117      0.00000
    143       7.9280      0.00000
    144       7.9594      0.00000
    145       7.9760      0.00000
    146       7.9866      0.00000
    147       8.0038      0.00000
    148       8.1324      0.00000
    149       8.1451      0.00000
    150       8.1598      0.00000
    151       8.1749      0.00000
    152       8.1882      0.00000
    153       8.2118      0.00000
    154       8.2726      0.00000
    155       8.4787      0.00000
    156       8.4920      0.00000
    157       8.5039      0.00000
    158       8.5735      0.00000
    159       8.6300      0.00000
    160       8.6479      0.00000
    161       8.6804      0.00000


--------------------------------------------------------------------------------------------------------


 soft charge-density along one line, spin component           1
         0         1         2         3         4         5         6         7         8         9
 total charge-density along one line
 
 pseudopotential strength for first ion, spin component:           1
 18.411  25.686   0.001  -0.001  -0.001   0.002  -0.001  -0.002
 25.686  35.841   0.001  -0.001  -0.001   0.002  -0.002  -0.002
  0.001   0.001   4.177  -0.000   0.000   7.784  -0.000   0.000
 -0.001  -0.001  -0.000   4.177  -0.000  -0.000   7.784  -0.000
 -0.001  -0.001   0.000  -0.000   4.177   0.000  -0.000   7.784
  0.002   0.002   7.784  -0.000   0.000  14.516  -0.001   0.000
 -0.001  -0.002  -0.000   7.784  -0.000  -0.001  14.516  -0.000
 -0.002  -0.002   0.000  -0.000   7.784   0.000  -0.000  14.516
 total augmentation occupancy for first ion, spin component:           1
  5.923  -2.274  -0.058   0.093  -0.140   0.021  -0.034   0.049
 -2.274   0.985   0.041  -0.055   0.063  -0.012   0.017  -0.022
 -0.058   0.041   3.310  -0.148  -0.002  -0.804   0.045   0.002
  0.093  -0.055  -0.148   3.246   0.028   0.045  -0.780  -0.009
 -0.140   0.063  -0.002   0.028   3.284   0.002  -0.009  -0.794
  0.021  -0.012  -0.804   0.045   0.002   0.203  -0.013  -0.001
 -0.034   0.017   0.045  -0.780  -0.009  -0.013   0.195   0.003
  0.049  -0.022   0.002  -0.009  -0.794  -0.001   0.003   0.200


------------------------ aborting loop because EDIFF is reached ----------------------------------------


    CHARGE:  cpu time      1.5499: real time      1.5535
    FORLOC:  cpu time      0.0457: real time      0.0458
    FORNL :  cpu time      9.8162: real time      9.8385
    STRESS:  cpu time     32.4836: real time     32.5570
    FORCOR:  cpu time      0.3346: real time      0.3353
    FORHAR:  cpu time      0.0731: real time      0.0733
    MIXING:  cpu time      0.0117: real time      0.0118
    OFIELD:  cpu time      0.0000: real time      0.0000

  FORCE on cell =-STRESS in cart. coord.  units (eV):
  Direction    XX          YY          ZZ          XY          YZ          ZX
  --------------------------------------------------------------------------------------
  Alpha Z   107.16655   107.16655   107.16655
  Ewald   -2434.47643 -2434.72175 -2429.47421    16.44181    -0.59855    14.78377
  Hartree   160.54611   159.33587   162.51063     1.99441    -0.48513     2.60600
  E(xc)    -811.45203  -811.44909  -811.49532    -0.15241    -0.00991    -0.11255
  Local    -941.39774  -939.74394  -948.29511   -17.66122     1.15671   -16.84317
  n-local  2492.88398  2492.92616  2493.69593     3.52531     0.18985     2.68420
  augment  -372.02834  -372.02223  -372.07192    -0.19577     0.00988    -0.16968
  Kinetic  1810.04758  1809.93078  1809.85123    -1.59969    -0.33088    -0.97829
  Fock        0.00000     0.00000     0.00000     0.00000     0.00000     0.00000
  -------------------------------------------------------------------------------------
  Total      11.28967    11.42234    11.88778     2.35243    -0.06803     1.97028
  in kB      14.05843    14.22363    14.80322     2.92935    -0.08472     2.45348
  external pressure =       14.36 kB  Pullay stress =        0.00 kB


 VOLUME and BASIS-vectors are now :
 -----------------------------------------------------------------------------
  energy-cutoff  :      250.00
  volume of cell :     1286.63
      direct lattice vectors                 reciprocal lattice vectors
    10.875228550  0.000000000  0.000000000     0.091952091  0.000075780  0.000103859
    -0.008964660 10.877769410  0.000000000     0.000000000  0.091930612 -0.000061944
    -0.012290650  0.007328510 10.876194800     0.000000000  0.000000000  0.091943921

  length of vectors
    10.875228550 10.877773104 10.876204214     0.091952180  0.091930633  0.091943921


 FORCES acting on ions
    electron-ion (+dipol)            ewald-force                    non-local-force                 convergence-correction
 -----------------------------------------------------------------------------------------------
   -.325E+01 0.639E+00 0.385E+01   0.288E+01 -.885E+00 -.350E+01   0.114E+01 0.132E+00 -.446E+00   0.117E-02 0.100E-03 -.290E-03
   0.742E+00 0.493E+01 -.260E+00   -.984E+00 -.473E+01 -.148E-01   -.358E+00 -.952E-01 0.214E+00   0.337E-03 0.320E-03 0.161E-03
   -.216E+01 -.135E+01 0.605E+01   0.181E+01 0.849E+00 -.541E+01   0.451E+00 0.920E+00 -.119E+01   0.838E-03 -.238E-03 0.745E-03
   0.858E+00 0.160E+01 0.272E+01   -.100E+01 -.179E+01 -.252E+01   0.572E+00 0.106E+00 -.391E+00   0.123E-03 -.507E-03 -.315E-03
   -.507E-01 0.430E+01 0.226E+01   -.179E+00 -.434E+01 -.232E+01   -.482E-01 -.374E+00 0.101E+00   0.765E-04 0.750E-03 -.525E-03
   -.279E+01 0.346E+01 0.339E+01   0.281E+01 -.333E+01 -.309E+01   0.671E+00 -.561E+00 -.574E+00   0.420E-03 0.143E-03 -.400E-03
   -.104E+01 0.310E+01 0.120E+01   0.131E+01 -.330E+01 -.103E+01   0.183E+00 0.238E-01 -.275E+00   0.482E-03 -.972E-04 -.627E-04
   0.453E+01 0.128E+01 0.175E+01   -.439E+01 -.126E+01 -.133E+01   -.730E+00 0.218E+00 -.762E-01   -.204E-03 0.333E-03 0.133E-02
   0.408E+01 0.502E+01 -.325E+01   -.398E+01 -.461E+01 0.326E+01   -.207E+00 -.124E+01 0.916E-01   0.668E-03 0.157E-03 0.606E-03
   0.144E+01 0.319E+01 -.495E+01   -.144E+01 -.306E+01 0.440E+01   -.442E-02 -.632E+00 0.739E+00   -.220E-03 -.466E-03 -.373E-03
   0.378E+01 0.482E+01 -.422E+01   -.374E+01 -.444E+01 0.389E+01   -.467E+00 -.934E+00 0.889E+00   0.193E-03 -.360E-03 -.348E-03
   0.129E+01 0.276E+01 -.239E+01   -.136E+01 -.269E+01 0.203E+01   0.576E+00 0.684E-01 0.153E+00   -.698E-03 0.585E-03 -.191E-03
   0.353E+01 0.494E-01 -.267E+01   -.365E+01 -.536E+00 0.264E+01   0.192E+00 0.774E+00 -.111E-01   -.321E-03 -.753E-03 -.108E-02
   0.388E+00 -.482E-02 -.667E+00   -.123E+00 0.799E-01 0.815E+00   -.340E+00 -.383E+00 -.128E+00   -.635E-03 -.415E-03 0.153E-03
   -.117E+01 0.569E+01 -.134E+01   0.113E+01 -.545E+01 0.135E+01   0.246E+00 -.831E+00 0.500E+00   0.484E-03 -.166E-03 0.848E-03
   0.313E+01 0.644E+00 0.108E+01   -.301E+01 -.824E+00 -.685E+00   -.643E+00 -.251E-01 -.147E+00   0.581E-03 0.987E-03 0.102E-03
   0.168E+01 -.220E+01 0.456E+00   -.163E+01 0.207E+01 -.477E+00   0.564E-02 0.384E+00 -.165E+00   0.151E-02 0.456E-04 -.456E-04
   0.437E+01 -.554E+01 0.145E+01   -.391E+01 0.522E+01 -.135E+01   -.101E+01 0.819E+00 -.140E+00   0.308E-03 -.408E-03 -.806E-03
   0.233E+01 -.372E+01 -.144E+01   -.237E+01 0.350E+01 0.100E+01   -.493E+00 0.366E+00 0.398E+00   0.635E-03 0.446E-03 -.907E-03
   0.406E+01 0.476E+00 -.966E-01   -.381E+01 -.321E+00 0.194E+00   -.674E+00 -.835E+00 -.225E+00   -.716E-04 0.586E-03 0.254E-03
   0.710E+01 -.304E+01 0.578E+00   -.669E+01 0.309E+01 -.698E+00   -.104E+01 0.259E+00 -.207E-01   0.545E-03 -.129E-02 -.112E-02
   -.287E+01 -.412E+01 0.483E+00   0.280E+01 0.390E+01 -.600E+00   0.701E+00 0.978E+00 0.837E-01   0.537E-03 0.671E-04 0.453E-03
   -.126E+01 -.782E+01 -.643E+00   0.165E+01 0.735E+01 0.805E+00   -.164E-01 0.134E+01 0.201E+00   -.864E-03 -.592E-03 -.106E-02
   0.449E+01 0.522E-01 -.406E+01   -.402E+01 0.134E+00 0.344E+01   -.980E+00 -.720E-01 0.100E+01   0.361E-03 0.829E-04 0.305E-03
   0.270E+01 -.126E+01 0.805E+00   -.243E+01 0.144E+01 -.614E+00   -.682E+00 0.152E+00 -.186E+00   0.494E-03 0.150E-03 0.999E-03
   -.987E+00 0.834E+00 0.308E+00   0.597E+00 -.440E+00 -.193E-01   0.245E+00 -.743E+00 -.437E+00   -.129E-02 0.183E-03 0.382E-03
   0.365E+01 -.967E+00 -.597E+00   -.341E+01 0.137E+01 0.398E+00   -.544E+00 -.228E+00 -.731E-01   -.139E-02 -.656E-03 0.527E-03
   0.125E+01 -.474E+01 0.127E+01   -.137E+01 0.451E+01 -.115E+01   0.466E+00 0.578E+00 -.695E+00   -.116E-02 -.198E-02 -.386E-03
   0.313E+01 -.418E+01 0.191E+00   -.320E+01 0.399E+01 0.154E-01   0.961E-01 0.175E+00 0.419E-01   -.146E-02 -.383E-03 -.520E-03
   -.208E+01 -.160E+01 -.101E+01   0.208E+01 0.153E+01 0.793E+00   0.359E+00 0.327E+00 -.153E-01   -.664E-03 0.408E-03 0.313E-03
   -.460E+01 -.124E+01 -.217E-01   0.407E+01 0.148E+01 -.153E-01   0.124E+01 -.769E+00 0.217E+00   -.145E-02 0.105E-02 0.183E-03
   -.241E+00 -.373E+01 0.415E+00   -.269E+00 0.353E+01 -.277E+00   0.564E+00 0.743E+00 -.200E+00   0.574E-03 -.301E-03 0.491E-03
   0.113E+01 -.854E+00 -.374E+01   -.928E+00 0.369E+00 0.344E+01   0.347E-01 0.173E+00 0.661E+00   -.194E-03 0.883E-03 0.196E-03
   0.207E+01 -.506E+00 0.801E+00   -.199E+01 0.106E-01 -.744E+00   -.670E+00 0.822E+00 -.116E+00   0.503E-04 0.730E-03 0.417E-03
   0.729E-01 0.378E+01 0.216E+00   -.112E+00 -.364E+01 -.107E+00   -.647E-01 -.751E+00 -.237E+00   -.112E-02 0.809E-03 0.621E-03
   -.347E+01 0.619E+01 0.107E+00   0.330E+01 -.602E+01 -.234E+00   0.600E+00 -.415E+00 -.222E-02   -.402E-03 -.105E-02 -.639E-03
   0.435E+01 0.470E+01 -.906E+00   -.388E+01 -.440E+01 0.728E+00   -.115E+01 -.377E+00 -.113E+00   -.142E-02 -.288E-04 0.988E-03
   -.228E+00 -.499E+00 0.159E+01   0.150E+00 0.582E+00 -.151E+01   0.664E+00 -.278E+00 -.377E+00   0.630E-03 -.343E-03 -.944E-03
   0.373E+01 0.222E+01 -.444E+01   -.351E+01 -.236E+01 0.416E+01   -.783E+00 0.485E+00 0.552E+00   -.134E-03 0.757E-04 -.244E-04
   -.239E+01 0.457E+01 -.658E-01   0.229E+01 -.431E+01 0.195E+00   -.510E-01 -.899E+00 0.751E-01   -.472E-04 0.898E-03 0.109E-02
   -.493E+01 0.336E+01 0.141E+01   0.460E+01 -.287E+01 -.122E+01   0.301E+00 -.540E+00 -.137E+00   0.394E-03 0.985E-03 -.321E-03
   -.120E+01 0.571E+01 -.228E+00   0.125E+01 -.536E+01 0.452E+00   -.468E-01 -.799E+00 -.269E+00   0.212E-03 0.932E-03 -.183E-03
   -.297E+01 0.278E+01 0.853E+01   0.265E+01 -.289E+01 -.780E+01   0.742E+00 0.274E+00 -.196E+01   -.590E-03 -.694E-03 -.511E-04
   -.213E+01 0.189E+01 -.280E+00   0.230E+01 -.200E+01 0.149E+00   -.312E+00 0.240E+00 0.895E-01   -.512E-03 -.102E-02 0.168E-03
   -.834E+01 0.628E+01 0.203E+01   0.773E+01 -.612E+01 -.184E+01   0.144E+01 -.827E+00 -.132E+00   -.155E-02 -.595E-03 -.917E-03
   -.142E+01 -.370E+00 0.683E+00   0.115E+01 0.716E-01 -.636E+00   0.205E+00 0.140E+00 -.358E+00   0.713E-03 0.320E-03 -.358E-03
   0.208E+00 0.462E+01 0.421E+01   -.340E+00 -.467E+01 -.388E+01   0.436E+00 -.330E+00 -.463E+00   0.900E-03 0.104E-02 -.386E-03
   -.257E+01 -.881E+00 -.241E+01   0.235E+01 0.670E+00 0.226E+01   0.406E+00 0.490E+00 0.686E+00   -.760E-04 -.498E-04 0.653E-03
   -.232E+01 -.183E+01 0.346E+01   0.231E+01 0.174E+01 -.328E+01   0.266E+00 0.445E+00 -.834E+00   -.312E-04 -.959E-03 0.162E-02
   -.418E+01 -.206E+01 0.141E+01   0.378E+01 0.180E+01 -.132E+01   0.902E+00 -.388E+00 -.239E-01   -.491E-03 0.298E-03 0.438E-04
   -.206E+01 -.408E+01 -.712E+00   0.204E+01 0.401E+01 0.517E+00   0.193E+00 0.201E+00 0.134E+00   -.618E-03 0.106E-02 0.933E-03
   -.221E+01 -.282E+01 0.158E+01   0.229E+01 0.297E+01 -.172E+01   -.606E+00 -.395E+00 -.154E+00   0.235E-03 0.158E-02 -.187E-03
   -.116E+01 -.323E+01 0.476E+01   0.138E+01 0.336E+01 -.441E+01   -.621E+00 0.374E+00 -.182E+00   0.143E-03 -.364E-03 0.414E-04
   0.201E+01 0.372E+01 -.170E+01   -.160E+01 -.306E+01 0.132E+01   -.953E+00 -.479E+00 0.619E+00   0.465E-03 -.771E-03 0.414E-03
   -.295E+01 -.394E+01 -.147E+01   0.262E+01 0.392E+01 0.147E+01   0.876E+00 0.290E+00 -.109E+00   -.903E-03 0.845E-04 0.121E-02
   -.123E+01 -.453E+01 -.643E+00   0.142E+01 0.421E+01 0.525E+00   -.267E-01 0.579E+00 0.351E+00   -.478E-03 0.230E-03 -.232E-03
   -.349E+01 -.300E+01 -.265E+01   0.337E+01 0.296E+01 0.240E+01   0.309E+00 0.439E+00 0.509E+00   0.129E-02 -.132E-02 -.948E-03
   0.658E+00 -.313E+01 -.189E+01   -.279E+00 0.331E+01 0.192E+01   -.117E+00 -.271E+00 0.413E+00   0.122E-02 -.660E-04 -.224E-03
   0.330E+00 -.130E+01 -.111E+01   0.144E-02 0.144E+01 0.111E+01   -.328E+00 -.213E+00 0.286E+00   0.522E-03 0.750E-03 -.931E-03
   -.360E+01 -.196E+01 0.902E+00   0.346E+01 0.207E+01 -.609E+00   0.469E+00 -.351E+00 -.154E+00   -.960E-03 -.534E-03 -.346E-03
   -.169E+01 -.567E+01 -.196E+01   0.177E+01 0.542E+01 0.165E+01   -.324E+00 0.646E+00 -.258E+00   0.112E-02 -.213E-03 0.367E-03
   0.232E+01 -.505E+01 -.219E+01   -.235E+01 0.445E+01 0.201E+01   -.415E+00 0.129E+01 0.777E+00   0.217E-03 -.141E-02 -.597E-03
   0.103E+01 -.180E+01 -.389E+01   -.951E+00 0.201E+01 0.333E+01   -.444E+00 0.560E-01 0.131E+01   0.156E-02 0.739E-03 -.188E-02
   0.590E+00 0.233E+00 -.206E+01   -.465E+00 0.287E+00 0.174E+01   -.380E+00 -.200E+00 0.195E+00   0.597E-03 0.739E-03 0.931E-03
 -----------------------------------------------------------------------------------------------
   -.133E-01 -.954E-01 -.313E-01   -.216E-12 0.112E-12 -.302E-13   0.261E-01 0.842E-01 0.236E-01   0.646E-03 0.517E-03 -.361E-04
 
 
 POSITION                                       TOTAL-FORCE (eV/Angst)
 -----------------------------------------------------------------------------------
     10.86693      0.06638      0.01303         0.782989     -0.113560     -0.090830
      2.84495      2.75589      0.03044        -0.599987      0.107664     -0.060349
      2.74904      0.01788      2.78553         0.105262      0.421827     -0.548594
      0.02015      2.77396      2.71874         0.428383     -0.080711     -0.187302
      1.43049      1.42538      1.36138        -0.278365     -0.420011      0.035664
      4.08508      4.13420      1.42861         0.696147     -0.431412     -0.271984
      4.01155      1.44426      4.17084         0.455191     -0.176044     -0.104268
      1.46732      4.07077      4.03242        -0.594014      0.236909      0.343803
      0.08460      0.10251      5.50570        -0.102065     -0.823553      0.099261
      2.71662      2.84299      5.53749        -0.011377     -0.499116      0.188616
      2.75177      0.09763      8.15130        -0.426081     -0.558265      0.559711
     10.82234      2.76526      8.30746         0.500425      0.141223     -0.208200
      1.33851      1.46468      6.90197         0.069887      0.287376     -0.048391
      4.11537      4.20363      6.83950        -0.075109     -0.308594      0.019661
      4.11310      1.48155      9.45768         0.206619     -0.584894      0.516079
      1.44310      4.12561      9.57586        -0.513869     -0.203742      0.249570
      0.05321      5.42375      0.11120         0.055364      0.252031     -0.185881
      2.74650      8.12156      0.07075        -0.542992      0.501235     -0.045041
      2.83320      5.45852      2.78581        -0.536161      0.151930     -0.039222
      0.12261      8.23690      2.82959        -0.427402     -0.678874     -0.127858
      1.45023      6.77897      1.47577        -0.627686      0.308678     -0.141274
      4.06050      9.47016      1.42564         0.636352      0.762500     -0.032137
      4.17404      6.79030      4.08230         0.369387      0.876840      0.362476
      1.47233      9.57957      4.16938        -0.508801      0.114918      0.378077
      0.12665      5.41859      5.43082        -0.409267      0.338078      0.005853
      2.83456      8.19834      5.47219        -0.146281     -0.347992     -0.147305
      2.75315      5.50213      8.20936        -0.306438      0.179620     -0.271916
      0.02049      8.13650      8.20066         0.345201      0.345931     -0.575773
      1.41862      6.84141      6.78381         0.017115     -0.010949      0.248135
      4.09452      9.58982      6.84170         0.359365      0.250246     -0.235160
      4.05250      6.87846      9.55190         0.700798     -0.529643      0.180718
      1.37737      9.51588      9.56080         0.053613      0.535936     -0.061283
      5.39687      0.10453      0.06022         0.238632     -0.311202      0.366561
      8.18008      2.75700      0.08947        -0.588816      0.327708     -0.058695
      8.28157      0.09321      2.76598        -0.105195     -0.617286     -0.126719
      5.41333      2.80685      2.83693         0.431051     -0.242358     -0.129552
      6.84575      1.43232      1.48818        -0.688809     -0.074510     -0.289273
      9.46978      4.14294      1.45229         0.586899     -0.194429     -0.301602
      9.64221      1.41434      4.12447        -0.567269      0.347320      0.269734
      6.84807      4.19500      4.11389        -0.149514     -0.634405      0.205203
      5.45152      0.06646      5.43378        -0.021340     -0.052544      0.053601
      8.23730      2.83773      5.46863         0.009621     -0.442538     -0.044595
      8.08201      0.01229      8.26886         0.420776      0.155342     -1.233934
      5.46927      2.80330      8.13156        -0.140300      0.134433     -0.041253
      6.77675      1.47158      6.78326         0.834306     -0.674019      0.058303
      9.60464      4.15714      6.86690        -0.062116     -0.158310     -0.310307
      9.42762      1.40932      9.59732         0.305169     -0.377323     -0.132550
      6.80774      4.08896      9.51767         0.186387      0.279354      0.538979
      5.43669      5.43604      0.05088         0.254719      0.355956     -0.645630
      8.22583      8.24104      0.00798         0.500638     -0.650258      0.058091
      8.17576      5.52279      2.77375         0.172382      0.124695     -0.059503
      5.57608      8.16877      2.71761        -0.528870     -0.241133     -0.299173
      6.90711      6.78494      1.30546        -0.405926      0.507763      0.165632
      9.64316      9.53792      1.40459        -0.545612      0.181515      0.246240
      9.53819      6.82268      4.15344         0.544771      0.275078     -0.102759
      6.83169      9.59421      4.05717         0.161748      0.263003      0.234033
      5.49270      5.48323      5.48687         0.188371      0.390712      0.258028
      8.11819      8.19788      5.43795         0.262156     -0.083419      0.441507
      8.19213      5.47044      8.18381         0.003296     -0.071386      0.289178
      5.41126      8.24472      8.21793         0.330283     -0.237802      0.139603
      6.81662      6.84408      6.91381        -0.237018      0.396629     -0.562203
      9.55758      9.50374      6.79021        -0.447310      0.690193      0.590955
      9.58887      6.77559      9.52944        -0.364466      0.267418      0.736557
      6.75177      9.55485      9.64047        -0.254848      0.320218     -0.119314
 -----------------------------------------------------------------------------------
    total drift:                                0.013449     -0.010661     -0.007660


--------------------------------------------------------------------------------------------------------



  FREE ENERGIE OF THE ION-ELECTRON SYSTEM (eV)
  ---------------------------------------------------
  free  energy   TOTEN  =      -345.19376678 eV

  energy  without entropy=     -345.19376678  energy(sigma->0) =     -345.19376678
 


--------------------------------------------------------------------------------------------------------


    POTLOK:  cpu time      0.1881: real time      0.1886


--------------------------------------------------------------------------------------------------------


 writing wavefunctions
     LOOP+:  cpu time    229.8494: real time    234.1294
    4ORBIT:  cpu time      0.0000: real time      0.0000

 total amount of memory used by VASP MPI-rank0    37852. kBytes
=======================================================================

   base      :      30000. kBytes
   nonlr-proj:       1202. kBytes
   fftplans  :        841. kBytes
   grid      :       1174. kBytes
   one-center:          9. kBytes
   wavefun   :       4626. kBytes
 
  
  
 General timing and accounting informations for this job:
 ========================================================
  
                  Total CPU time used (sec):      270.824
                            User time (sec):      270.627
                          System time (sec):        0.197
                         Elapsed time (sec):      279.100
  
                   Maximum memory used (kb):      210616.
                   Average memory used (kb):          N/A
  
                          Minor page faults:        19392
                          Major page faults:         7644
                 Voluntary context switches:         4327
