 vasp.6.4.2 20Jul23 (build Jun 27 2024 19:57:08) complex                        
  
 executed on                 T2A5 date 2026.01.14  00:16:14
 running   28 mpi-ranks, with    1 threads/rank, on    1 nodes
 distrk:  each k-point on   28 cores,    1 groups
 distr:  one band on NCORE=  28 cores,    1 groups


--------------------------------------------------------------------------------------------------------


 INCAR:
   ISTART = 1
   ICHARG = 1
   LWAVE = .T.
   LCHARG = .T.
   ENCUT = 250
   PREC = Normal
   ADDGRID = .F.
   EDIFF = 1E-4
   LREAL = Auto
   ALGO = Fast
   NSW = 0
   IBRION = -1
   ISMEAR = 0
   SIGMA = 0.1
   NPAR = 1
   KPAR = 1
   SYMPREC = 1E-4

 POTCAR:    PAW_PBE Si 05Jan2001                  
 POTCAR:    PAW_PBE Si 05Jan2001                  
   SHA256 =  79d9987ad8750f624c4d6acb2a16d13abf6a777132adc04dc6c8399be72b42bb Si/POTCAR             
   COPYR  = (c) Copyright 05Jan2001 Georg Kresse                                                    
   COPYR  = This file is part of the software VASP. Any use, copying, and all other rights are regul
   COPYR  = If you do not have a valid VASP license, you may not use, copy or distribute this file. 
   VRHFIN =Si: s2p2                                                                                 
   LEXCH  = PE                                                                                      
   EATOM  =   103.0669 eV,    7.5752 Ry                                                             
                                                                                                    
   TITEL  = PAW_PBE Si 05Jan2001                                                                    
   LULTRA =        F    use ultrasoft PP ?                                                          
   IUNSCR =        1    unscreen: 0-lin 1-nonlin 2-no                                               
   RPACOR =    1.500    partial core radius                                                         
   POMASS =   28.085; ZVAL   =    4.000    mass and valenz                                          
   RCORE  =    1.900    outmost cutoff radius                                                       
   RWIGS  =    2.480; RWIGS  =    1.312    wigner-seitz radius (au A)                               
   ENMAX  =  245.345; ENMIN  =  184.009 eV                                                          
   ICORE  =        2    local potential                                                             
   LCOR   =        T    correct aug charges                                                         
   LPAW   =        T    paw PP                                                                      
   EAUG   =  322.069                                                                                
   DEXC   =    0.000                                                                                
   RMAX   =    1.950    core radius for proj-oper                                                   
   RAUG   =    1.300    factor for augmentation sphere                                              
   RDEP   =    1.993    radius for radial grids                                                     
   RDEPT  =    1.837    core radius for aug-charge                                                  
                                                                                                    
   Atomic configuration                                                                             
    6 entries                                                                                       
     n  l   j            E        occ.                                                              
     1  0  0.50     -1785.8828   2.0000                                                             
     2  0  0.50      -139.4969   2.0000                                                             
     2  1  1.50       -95.5546   6.0000                                                             
     3  0  0.50       -10.8127   2.0000                                                             
     3  1  0.50        -4.0811   2.0000                                                             
     3  2  1.50        -4.0817   0.0000                                                             
   Description                                                                                      
     l       E           TYP  RCUT    TYP  RCUT                                                     
     0    -10.8127223     23  1.900                                                                 
     0     -7.6451159     23  1.900                                                                 
     1     -4.0811372     23  1.900                                                                 
     1      2.4879257     23  1.900                                                                 
     2     -4.0817478      7  1.900                                                                 
  local pseudopotential read in
  partial core-charges read in
  partial kinetic energy density read in
  atomic valenz-charges read in
  non local Contribution for L=           0  read in
    real space projection operators read in
  non local Contribution for L=           0  read in
    real space projection operators read in
  non local Contribution for L=           1  read in
    real space projection operators read in
  non local Contribution for L=           1  read in
    real space projection operators read in
    PAW grid and wavefunctions read in
 
   number of l-projection  operators is LMAX  =           4
   number of lm-projection operators is LMMAX =           8
 
 Optimization of the real space projectors (new method)

 maximal supplied QI-value         = 19.84
 optimisation between [QCUT,QGAM] = [  7.94, 16.07] = [ 17.64, 72.34] Ry 
 Optimized for a Real-space Cutoff    1.55 Angstroem

   l    n(q)    QCUT    max X(q) W(low)/X(q) W(high)/X(q)  e(spline) 
   0      7     7.937   159.560    0.97E-04    0.31E-03    0.13E-06
   0      7     7.937   115.863    0.95E-04    0.31E-03    0.13E-06
   1      7     7.937    88.339    0.40E-03    0.66E-03    0.12E-06
   1      7     7.937    48.592    0.39E-03    0.64E-03    0.12E-06
  PAW_PBE Si 05Jan2001                  :
 energy of atom  1       EATOM= -103.0669
 kinetic energy error for atom=    0.0052 (will be added to EATOM!!)
 
 
 POSCAR: Si
  positions in cartesian coordinates
  No initial velocities read in
 exchange correlation table for  LEXCH =        8
   RHO(1)=    0.500       N(1)  =     2000
   RHO(2)=  100.500       N(2)  =     4000
 


--------------------------------------------------------------------------------------------------------


 ion  position               nearest neighbor table
   1  0.009  0.007  0.003-  32 2.30   5 2.35  47 2.40  54 2.41
   2  0.258  0.252  0.004-   6 2.33  15 2.33   5 2.33  16 2.36
   3  0.261  0.999  0.252-  22 2.33   7 2.36  24 2.36   5 2.40
   4  0.000  0.253  0.245-   5 2.34  39 2.37  38 2.38   8 2.43
   5  0.133  0.130  0.129-   2 2.33   4 2.34   1 2.35   3 2.40
   6  0.375  0.378  0.131-  36 2.32  19 2.32   2 2.33  49 2.33
   7  0.380  0.128  0.379-  41 2.31  36 2.33  10 2.34   3 2.36
   8  0.127  0.379  0.378-  25 2.29  19 2.35  10 2.35   4 2.43
   9  0.006  0.006  0.507-  13 2.32  24 2.36  62 2.36  39 2.37
  10  0.255  0.254  0.500-   7 2.34   8 2.35  14 2.36  13 2.38
  11  0.253  0.005  0.760-  32 2.36  15 2.40  13 2.41  30 2.41
  12  0.006  0.255  0.756-  47 2.31  46 2.31  13 2.34  16 2.37
  13  0.128  0.131  0.629-   9 2.32  12 2.34  10 2.38  11 2.41
  14  0.375  0.382  0.630-  27 2.33  57 2.34  44 2.35  10 2.36
  15  0.386  0.133  0.880-  33 2.31   2 2.33  44 2.37  11 2.40
  16  0.134  0.381  0.881-   2 2.36  17 2.36  27 2.36  12 2.37
  17  0.008  0.504  0.008-  21 2.31  38 2.33  16 2.36  63 2.38
  18  0.249  0.753  0.005-  32 2.32  21 2.36  31 2.36  22 2.37
  19  0.255  0.503  0.255-   6 2.32  21 2.33  23 2.34   8 2.35
  20  0.004  0.758  0.257-  54 2.36  24 2.36  21 2.38  55 2.40
  21  0.128  0.627  0.134-  17 2.31  19 2.33  18 2.36  20 2.38
  22  0.383  0.873  0.129-  52 2.30   3 2.33  33 2.35  18 2.37
  23  0.379  0.627  0.380-  19 2.34  26 2.36  57 2.39  52 2.44
  24  0.132  0.882  0.382-  26 2.34   9 2.36   3 2.36  20 2.36
  25  0.012  0.502  0.503-   8 2.29  29 2.30  55 2.34  46 2.35
  26  0.251  0.752  0.504-  29 2.33  24 2.34  23 2.36  30 2.37
  27  0.254  0.508  0.753-  14 2.33  29 2.33  31 2.35  16 2.36
  28  0.002  0.752  0.752-  63 2.31  62 2.34  29 2.36  32 2.41
  29  0.128  0.627  0.627-  25 2.30  27 2.33  26 2.33  28 2.36
  30  0.378  0.880  0.626-  26 2.37  60 2.37  41 2.40  11 2.41
  31  0.378  0.635  0.877-  60 2.31  27 2.35  18 2.36  49 2.45
  32  0.127  0.879  0.883-   1 2.30  18 2.32  11 2.36  28 2.41
  33  0.500  0.012  0.012-  15 2.31  37 2.32  22 2.35  64 2.38
  34  0.754  0.257  0.005-  48 2.33  38 2.35  37 2.39  47 2.40
  35  0.755  0.006  0.259-  56 2.31  39 2.36  37 2.37  54 2.44
  36  0.498  0.252  0.251-  37 2.30   6 2.32   7 2.33  40 2.40
  37  0.628  0.132  0.134-  36 2.30  33 2.32  35 2.37  34 2.39
  38  0.873  0.388  0.128-  17 2.33  34 2.35   4 2.38  51 2.39
  39  0.881  0.133  0.382-  42 2.36  35 2.36   4 2.37   9 2.37
  40  0.623  0.379  0.381-  57 2.29  42 2.34  51 2.36  36 2.40
  41  0.507  0.010  0.501-  45 2.30   7 2.31  56 2.32  30 2.40
  42  0.753  0.259  0.504-  40 2.34  46 2.35  39 2.36  45 2.38
  43  0.756  0.997  0.754-  62 2.38  47 2.39  45 2.40  64 2.40
  44  0.506  0.259  0.749-  14 2.35  48 2.37  45 2.37  15 2.37
  45  0.630  0.127  0.628-  41 2.30  44 2.37  42 2.38  43 2.40
  46  0.888  0.375  0.626-  12 2.31  25 2.35  42 2.35  59 2.40
  47  0.880  0.132  0.875-  12 2.31  43 2.39   1 2.40  34 2.40
  48  0.629  0.380  0.882-  49 2.32  34 2.33  59 2.36  44 2.37
  49  0.502  0.498  0.007-  48 2.32   6 2.33  53 2.36  31 2.45
  50  0.758  0.749  0.998-  63 2.32  53 2.32  54 2.36  64 2.38
  51  0.748  0.510  0.262-  53 2.33  55 2.34  40 2.36  38 2.39
  52  0.510  0.755  0.250-  22 2.30  56 2.34  53 2.41  23 2.44
  53  0.635  0.625  0.121-  50 2.32  51 2.33  49 2.36  52 2.41
  54  0.879  0.876  0.126-  20 2.36  50 2.36   1 2.41  35 2.44
  55  0.881  0.627  0.385-  25 2.34  51 2.34  58 2.38  20 2.40
  56  0.626  0.885  0.377-  35 2.31  41 2.32  52 2.34  58 2.39
  57  0.507  0.501  0.507-  40 2.29  14 2.34  61 2.35  23 2.39
  58  0.746  0.751  0.504-  62 2.35  55 2.38  61 2.39  56 2.39
  59  0.758  0.499  0.754-  61 2.34  48 2.36  63 2.37  46 2.40
  60  0.502  0.751  0.750-  61 2.29  31 2.31  30 2.37  64 2.44
  61  0.627  0.624  0.638-  60 2.29  59 2.34  57 2.35  58 2.39
  62  0.879  0.873  0.623-  28 2.34  58 2.35   9 2.36  43 2.38
  63  0.884  0.628  0.876-  28 2.31  50 2.32  59 2.37  17 2.38
  64  0.623  0.882  0.887-  33 2.38  50 2.38  43 2.40  60 2.44
 
  LATTYP: Found a base centered monoclinic cell.
 ALAT       =    51.0124998719
 B/A-ratio  =     0.3013554385
 C/A-ratio  =     0.3692453340
 COS(beta)  =    -0.9847144562
  
  Lattice vectors:
  
 A1 = (  10.8887876800,  10.8612653900, -21.7512245200)
 A2 = (  21.7537251600,  10.8696117300, -10.8756122600)
 A3 = ( -10.8799034900, -10.8696117300,  10.8756122600)


Analysis of symmetry for initial positions (statically):
=====================================================================
 Subroutine PRICEL returns:
 Original cell was already a primitive cell.
 

 Routine SETGRP: Setting up the symmetry group for a 
 base centered monoclinic supercell.


 Subroutine GETGRP returns: Found  1 space group operations
 (whereof  1 operations were pure point group operations)
 out of a pool of  4 trial point group operations.


The static configuration has the point symmetry C_1 .


Analysis of symmetry for dynamics (positions and initial velocities):
=====================================================================
 Subroutine PRICEL returns:
 Original cell was already a primitive cell.
 

 Routine SETGRP: Setting up the symmetry group for a 
 base centered monoclinic supercell.


 Subroutine GETGRP returns: Found  1 space group operations
 (whereof  1 operations were pure point group operations)
 out of a pool of  4 trial point group operations.


The dynamic configuration has the point symmetry C_1 .


 Subroutine INISYM returns: Found  1 space group operations
 (whereof  1 operations are pure point group operations),
 and found     1 'primitive' translations


----------------------------------------------------------------------------------------

                                     Primitive cell                                     

  volume of cell :    1286.4215

  direct lattice vectors                    reciprocal lattice vectors
    10.873821670  0.000000000  0.000000000     0.091963987  0.000023692  0.000075106
    -0.002802370 10.877958070  0.000000000     0.000000000  0.091929018 -0.000070550
    -0.008884190  0.008346340 10.875612260     0.000000000  0.000000000  0.091948846

  length of vectors
    10.873821670 10.877958431 10.875619091     0.091964021  0.091929045  0.091948846

  position of ions in fractional coordinates (direct lattice)
     0.009125169  0.006590562  0.002953408
     0.257646412  0.251764416  0.003791066
     0.260587681  0.998618522  0.251841397
     0.000271487  0.253124903  0.244862569
     0.132853792  0.130285595  0.129143284
     0.374868894  0.378158946  0.130524577
     0.379726322  0.128056208  0.378879620
     0.127487719  0.379057884  0.377895709
     0.005910773  0.005549093  0.507453500
     0.255262288  0.254492442  0.500495652
     0.253466343  0.004647399  0.759519146
     0.005878237  0.255235163  0.756325664
     0.127581598  0.131457919  0.628929589
     0.374666807  0.382364137  0.629576555
     0.386174154  0.133011367  0.880177081
     0.133501158  0.380585005  0.881496109
     0.007904967  0.504092549  0.008339415
     0.248718286  0.752819692  0.004840022
     0.254822130  0.503323781  0.254794702
     0.003925473  0.757712940  0.257189766
     0.128366982  0.626821360  0.133749395
     0.382700453  0.872922710  0.128561957
     0.378954539  0.627331301  0.380144655
     0.131589559  0.882088400  0.381722567
     0.011584351  0.502427507  0.502678873
     0.251474903  0.751509724  0.503900920
     0.254047078  0.508057458  0.753270298
     0.002227871  0.752389236  0.751629087
     0.128221819  0.626895702  0.627119061
     0.378120157  0.880002824  0.625781235
     0.377991796  0.634734079  0.877172053
     0.127226683  0.879122591  0.883060500
     0.500236992  0.011798120  0.012192868
     0.753568325  0.256792782  0.005326807
     0.754563421  0.006376289  0.259267289
     0.498236192  0.252014821  0.250619898
     0.627531562  0.131657218  0.134353366
     0.873240248  0.388405948  0.127863961
     0.880887304  0.133300166  0.382441028
     0.623260568  0.378756166  0.380695840
     0.506941802  0.009624751  0.501247836
     0.752523885  0.258680532  0.503625545
     0.755750142  0.997236184  0.754056390
     0.506316616  0.258874710  0.749106864
     0.629570933  0.126587255  0.627993919
     0.888293557  0.374934339  0.625848834
     0.880315758  0.131907817  0.874961021
     0.629065821  0.380044781  0.882037978
     0.501913175  0.497944172  0.006813849
     0.757948009  0.748879680  0.997766365
     0.748477946  0.510217892  0.261828537
     0.510031051  0.754957810  0.249813477
     0.635079686  0.625494885  0.120949339
     0.878710659  0.876173839  0.125899223
     0.880968326  0.627206079  0.385116442
     0.625952440  0.884671719  0.376734268
     0.506693256  0.500781182  0.507139571
     0.746203031  0.751401618  0.503746893
     0.758284299  0.498620926  0.753820935
     0.502418480  0.751109957  0.750380056
     0.627188205  0.624202075  0.637756355
     0.878669916  0.873243271  0.623039723
     0.884034656  0.627532736  0.876226425
     0.623447031  0.881751680  0.887112166

  ion indices of the primitive-cell ions
   primitive index   ion index
                 1           1
                 2           2
                 3           3
                 4           4
                 5           5
                 6           6
                 7           7
                 8           8
                 9           9
                10          10
                11          11
                12          12
                13          13
                14          14
                15          15
                16          16
                17          17
                18          18
                19          19
                20          20
                21          21
                22          22
                23          23
                24          24
                25          25
                26          26
                27          27
                28          28
                29          29
                30          30
                31          31
                32          32
                33          33
                34          34
                35          35
                36          36
                37          37
                38          38
                39          39
                40          40
                41          41
                42          42
                43          43
                44          44
                45          45
                46          46
                47          47
                48          48
                49          49
                50          50
                51          51
                52          52
                53          53
                54          54
                55          55
                56          56
                57          57
                58          58
                59          59
                60          60
                61          61
                62          62
                63          63
                64          64

----------------------------------------------------------------------------------------

 
 
 KPOINTS: K-Points                                

Automatic generation of k-mesh.
 Grid dimensions read from file:
 generate k-points for:    2    2    2

 Generating k-lattice:

  Cartesian coordinates                     Fractional coordinates (reciprocal lattice)
     0.045981994  0.000011846  0.000037553     0.500000000  0.000000000  0.000000000
     0.000000000  0.045964509 -0.000035275     0.000000000  0.500000000 -0.000000000
     0.000000000  0.000000000  0.045974423     0.000000000  0.000000000  0.500000000

  Length of vectors
     0.045982011  0.045964522  0.045974423

  Shift w.r.t. Gamma in fractional coordinates (k-lattice)
     0.500000000  0.500000000  0.500000000

 
 Subroutine IBZKPT returns following result:
 ===========================================
 
 Found      4 irreducible k-points:
 
 Following reciprocal coordinates:
            Coordinates               Weight
  0.250000  0.250000  0.250000      2.000000
 -0.250000  0.250000  0.250000      2.000000
  0.250000 -0.250000  0.250000      2.000000
 -0.250000 -0.250000  0.250000      2.000000
 
 Following cartesian coordinates:
            Coordinates               Weight
  0.022991  0.022988  0.022988      2.000000
 -0.022991  0.022976  0.022951      2.000000
  0.022991 -0.022976  0.023024      2.000000
 -0.022991 -0.022988  0.022986      2.000000
 


--------------------------------------------------------------------------------------------------------




 Dimension of arrays:
   k-points           NKPTS =      4   k-points in BZ     NKDIM =      4   number of bands    NBANDS=    161
   number of dos      NEDOS =    301   number of ions     NIONS =     64
   non local maximal  LDIM  =      4   non local SUM 2l+1 LMDIM =      8
   total plane-waves  NPLWV =  74088
   max r-space proj   IRMAX =    951   max aug-charges    IRDMAX=   2125
   dimension x,y,z NGX =    42 NGY =   42 NGZ =   42
   dimension x,y,z NGXF=    84 NGYF=   84 NGZF=   84
   support grid    NGXF=    84 NGYF=   84 NGZF=   84
   ions per type =              64
   NGX,Y,Z   is equivalent  to a cutoff of   6.42,  6.42,  6.42 a.u.
   NGXF,Y,Z  is equivalent  to a cutoff of  12.84, 12.84, 12.84 a.u.

 SYSTEM =  unknown system                          
 POSCAR =  Si                                      

 Startparameter for this run:
   NWRITE =      2    write-flag & timer
   PREC   = normal    normal or accurate (medium, high low for compatibility)
   ISTART =      1    job   : 0-new  1-cont  2-samecut
   ICHARG =      1    charge: 1-file 2-atom 10-const
   ISPIN  =      1    spin polarized calculation?
   LNONCOLLINEAR =      F non collinear calculations
   LSORBIT =      F    spin-orbit coupling
   INIWAV =      1    electr: 0-lowe 1-rand  2-diag
   LASPH  =      F    aspherical Exc in radial PAW
 Electronic Relaxation 1
   ENCUT  =  250.0 eV  18.37 Ry    4.29 a.u.  14.02 14.02 14.02*2*pi/ulx,y,z
   ENINI  =  250.0     initial cutoff
   ENAUG  =  322.1 eV  augmentation charge cutoff
   NELM   =     60;   NELMIN=  2; NELMDL=  0     # of ELM steps 
   EDIFF  = 0.1E-03   stopping-criterion for ELM
   LREAL  =      T    real-space projection
   NLSPLINE    = F    spline interpolate recip. space projectors
   LCOMPAT=      F    compatible to vasp.4.4
   GGA_COMPAT  = T    GGA compatible to vasp.4.4-vasp.4.6
   LMAXPAW     = -100 max onsite density
   LMAXMIX     =    2 max onsite mixed and CHGCAR
   VOSKOWN=      0    Vosko Wilk Nusair interpolation
   ROPT   =   -0.00050
 Ionic relaxation
   EDIFFG = 0.1E-02   stopping-criterion for IOM
   NSW    =      0    number of steps for IOM
   NBLOCK =      1;   KBLOCK =      1    inner block; outer block 
   IBRION =     -1    ionic relax: 0-MD 1-quasi-New 2-CG
   NFREE  =      0    steps in history (QN), initial steepest desc. (CG)
   ISIF   =      2    stress and relaxation
   IWAVPR =     10    prediction:  0-non 1-charg 2-wave 3-comb
   ISYM   =      2    0-nonsym 1-usesym 2-fastsym
   LCORR  =      T    Harris-Foulkes like correction to forces

   POTIM  = 0.5000    time-step for ionic-motion
   TEIN   =    0.0    initial temperature
   TEBEG  =    0.0;   TEEND  =   0.0 temperature during run
   SMASS  =  -3.00    Nose mass-parameter (am)
   estimated Nose-frequenzy (Omega)   =  0.10E-29 period in steps = 0.13E+47 mass=  -0.270E-26a.u.
   SCALEE = 1.0000    scale energy and forces
   NPACO  =    256;   APACO  = 10.0  distance and # of slots for P.C.
   PSTRESS=    0.0 pullay stress

  Mass of Ions in am
   POMASS =  28.09
  Ionic Valenz
   ZVAL   =   4.00
  Atomic Wigner-Seitz radii
   RWIGS  =  -1.00
  virtual crystal weights 
   VCA    =   1.00
   NELECT =     256.0000    total number of electrons
   NUPDOWN=      -1.0000    fix difference up-down

 DOS related values:
   EMIN   =  10.00;   EMAX   =-10.00  energy-range for DOS
   EFERMI =   0.00;   METHOD = LEGACY      
   ISMEAR =     0;   SIGMA  =   0.10  broadening in eV -4-tet -1-fermi 0-gaus

 Electronic relaxation 2 (details)
   IALGO  =     68    algorithm
   LDIAG  =      T    sub-space diagonalisation (order eigenvalues)
   LSUBROT=      F    optimize rotation matrix (better conditioning)
   TURBO    =      0    0=normal 1=particle mesh
   IRESTART =      0    0=no restart 2=restart with 2 vectors
   NREBOOT  =      0    no. of reboots
   NMIN     =      0    reboot dimension
   EREF     =   0.00    reference energy to select bands
   IMIX   =      4    mixing-type and parameters
     AMIX     =   0.40;   BMIX     =  1.00
     AMIX_MAG =   1.60;   BMIX_MAG =  1.00
     AMIN     =   0.10
     WC   =   100.;   INIMIX=   1;  MIXPRE=   1;  MAXMIX= -45

 Intra band minimization:
   WEIMIN = 0.0000     energy-eigenvalue tresh-hold
   EBREAK =  0.16E-06  absolut break condition
   DEPER  =   0.30     relativ break condition  

   TIME   =   0.40     timestep for ELM

  volume/ion in A,a.u.               =      20.10       135.64
  Fermi-wavevector in a.u.,A,eV,Ry     =   0.955785  1.806172 12.429272  0.913526
  Thomas-Fermi vector in A             =   2.084655
 
 Write flags
   LWAVE        =      T    write WAVECAR
   LDOWNSAMPLE  =      F    k-point downsampling of WAVECAR
   LCHARG       =      T    write CHGCAR
   LVTOT        =      F    write LOCPOT, total local potential
   LVHAR        =      F    write LOCPOT, Hartree potential only
   LELF         =      F    write electronic localiz. function (ELF)
   LORBIT       =      0    0 simple, 1 ext, 2 COOP (PROOUT), +10 PAW based schemes


 Dipole corrections
   LMONO  =      F    monopole corrections only (constant potential shift)
   LDIPOL =      F    correct potential (dipole corrections)
   IDIPOL =      0    1-x, 2-y, 3-z, 4-all directions 
   EPSILON=  1.0000000 bulk dielectric constant

 Exchange correlation treatment:
   GGA     =    --    GGA type
   LEXCH   =     8    internal setting for exchange type
   LIBXC   =     F    Libxc                    
   VOSKOWN =     0    Vosko Wilk Nusair interpolation
   LHFCALC =     F    Hartree Fock is set to
   LHFONE  =     F    Hartree Fock one center treatment
   AEXX    =    0.0000 exact exchange contribution

 Linear response parameters
   LEPSILON=     F    determine dielectric tensor
   LRPA    =     F    only Hartree local field effects (RPA)
   LNABLA  =     F    use nabla operator in PAW spheres
   LVEL    =     F    velocity operator in full k-point grid
   CSHIFT  =0.1000    complex shift for real part using Kramers Kronig
   OMEGAMAX=  -1.0    maximum frequency
   DEG_THRESHOLD= 0.2000000E-02 threshold for treating states as degnerate
   RTIME   =   -0.100 relaxation time in fs
  (WPLASMAI=    0.000 imaginary part of plasma frequency in eV, 0.658/RTIME)
   DFIELD  = 0.0000000 0.0000000 0.0000000 field for delta impulse in time
 
  Optional k-point grid parameters
   LKPOINTS_OPT  =     F    use optional k-point grid
   KPOINTS_OPT_MODE=     1    mode for optional k-point grid
 
 Orbital magnetization related:
   ORBITALMAG=     F  switch on orbital magnetization
   LCHIMAG   =     F  perturbation theory with respect to B field
   DQ        =  0.001000  dq finite difference perturbation B field
   LLRAUG    =     F  two centre corrections for induced B field
   LBONE     =     F  B-component reconstruction in AE one-centre
   LVGVCALC  =     T  calculate vGv susceptibility
   LVGVAPPL  =     F  apply vGv susceptibility instead of pGv for G=0

 Random number generation:
   RANDOM_GENERATOR = DEFAULT
   PCG_SEED         = not used


--------------------------------------------------------------------------------------------------------


 Static calculation
 charge density and potential will be updated during run
 non-spin polarized calculation
 RMM-DIIS sequential band-by-band and
  variant of blocked Davidson during initial phase
 perform sub-space diagonalisation
    before iterative eigenvector-optimisation
 modified Broyden-mixing scheme, WC =      100.0
 initial mixing is a Kerker type mixing with AMIX =  0.4000 and BMIX =      1.0000
 Hartree-type preconditioning will be used
 using additional bands           33
 real space projection scheme for non local part
 use partial core corrections
 calculate Harris-corrections to forces 
   (improved forces if not selfconsistent)
 use gradient corrections 
 use of overlap-Matrix (Vanderbilt PP)
 Gauss-broadening in eV      SIGMA  =   0.10


--------------------------------------------------------------------------------------------------------


  energy-cutoff  :      250.00
  volume of cell :     1286.42
      direct lattice vectors                 reciprocal lattice vectors
    10.873821670  0.000000000  0.000000000     0.091963987  0.000023692  0.000075106
    -0.002802370 10.877958070  0.000000000     0.000000000  0.091929018 -0.000070550
    -0.008884190  0.008346340 10.875612260     0.000000000  0.000000000  0.091948846

  length of vectors
    10.873821670 10.877958431 10.875619091     0.091964021  0.091929045  0.091948846


 
 old parameters found on file WAVECAR:
  energy-cutoff  :      250.00
  volume of cell :     1286.22
      direct lattice vectors                 reciprocal lattice vectors
    10.873229220  0.000000000  0.000000000     0.091968998  0.000028526  0.000077279
    -0.003373850 10.877401740  0.000000000     0.000000000  0.091933719 -0.000069007
    -0.009140570  0.008163020 10.875022500     0.000000000  0.000000000  0.091953833

  length of vectors

 
 k-points in units of 2pi/SCALE and weight: K-Points                                
   0.02299100  0.02298818  0.02298835       0.250
  -0.02299100  0.02297633  0.02295080       0.250
   0.02299100 -0.02297633  0.02302363       0.250
  -0.02299100 -0.02298818  0.02298607       0.250
 
 k-points in reciprocal lattice and weights: K-Points                                
   0.25000000  0.25000000  0.25000000       0.250
  -0.25000000  0.25000000  0.25000000       0.250
   0.25000000 -0.25000000  0.25000000       0.250
  -0.25000000 -0.25000000  0.25000000       0.250
 
 position of ions in fractional coordinates (direct lattice) 
   0.00912517  0.00659056  0.00295341
   0.25764641  0.25176442  0.00379107
   0.26058768  0.99861852  0.25184140
   0.00027149  0.25312490  0.24486257
   0.13285379  0.13028559  0.12914328
   0.37486889  0.37815895  0.13052458
   0.37972632  0.12805621  0.37887962
   0.12748772  0.37905788  0.37789571
   0.00591077  0.00554909  0.50745350
   0.25526229  0.25449244  0.50049565
   0.25346634  0.00464740  0.75951915
   0.00587824  0.25523516  0.75632566
   0.12758160  0.13145792  0.62892959
   0.37466681  0.38236414  0.62957655
   0.38617415  0.13301137  0.88017708
   0.13350116  0.38058500  0.88149611
   0.00790497  0.50409255  0.00833941
   0.24871829  0.75281969  0.00484002
   0.25482213  0.50332378  0.25479470
   0.00392547  0.75771294  0.25718977
   0.12836698  0.62682136  0.13374939
   0.38270045  0.87292271  0.12856196
   0.37895454  0.62733130  0.38014465
   0.13158956  0.88208840  0.38172257
   0.01158435  0.50242751  0.50267887
   0.25147490  0.75150972  0.50390092
   0.25404708  0.50805746  0.75327030
   0.00222787  0.75238924  0.75162909
   0.12822182  0.62689570  0.62711906
   0.37812016  0.88000282  0.62578123
   0.37799180  0.63473408  0.87717205
   0.12722668  0.87912259  0.88306050
   0.50023699  0.01179812  0.01219287
   0.75356833  0.25679278  0.00532681
   0.75456342  0.00637629  0.25926729
   0.49823619  0.25201482  0.25061990
   0.62753156  0.13165722  0.13435337
   0.87324025  0.38840595  0.12786396
   0.88088730  0.13330017  0.38244103
   0.62326057  0.37875617  0.38069584
   0.50694180  0.00962475  0.50124784
   0.75252388  0.25868053  0.50362554
   0.75575014  0.99723618  0.75405639
   0.50631662  0.25887471  0.74910686
   0.62957093  0.12658725  0.62799392
   0.88829356  0.37493434  0.62584883
   0.88031576  0.13190782  0.87496102
   0.62906582  0.38004478  0.88203798
   0.50191318  0.49794417  0.00681385
   0.75794801  0.74887968  0.99776636
   0.74847795  0.51021789  0.26182854
   0.51003105  0.75495781  0.24981348
   0.63507969  0.62549489  0.12094934
   0.87871066  0.87617384  0.12589922
   0.88096833  0.62720608  0.38511644
   0.62595244  0.88467172  0.37673427
   0.50669326  0.50078118  0.50713957
   0.74620303  0.75140162  0.50374689
   0.75828430  0.49862093  0.75382093
   0.50241848  0.75110996  0.75038006
   0.62718820  0.62420207  0.63775635
   0.87866992  0.87324327  0.62303972
   0.88403466  0.62753274  0.87622642
   0.62344703  0.88175168  0.88711217
 
 position of ions in cartesian coordinates  (Angst):
   0.09918075  0.07171651  0.03212012
   2.80086192  2.73871440  0.04123016
   2.82854807 10.86503236  2.73892939
   0.00006735  2.75552579  2.66303036
   1.44311600  1.41831911  1.40451228
   4.07403816  4.11468656  1.41953469
   4.12535141  1.39615232  4.12054784
   1.38185916  4.12652981  4.10984721
   0.05974883  0.06459818  5.51886751
   2.77051692  2.77253542  5.44319665
   2.74938708  0.05689342  8.26023574
   0.05648430  2.78274995  8.22550466
   1.38134362  1.43524299  6.83999435
   4.06739524  4.16459571  6.84703050
   4.19099648  1.45423833  9.57246465
   1.44276987  4.14734499  9.58680989
   0.08447046  5.48356722  0.09069624
   2.70236561  8.18918144  0.05263820
   2.76721626  5.47726159  2.77104839
   0.03827658  8.24451618  2.79709617
   1.39289483  6.81965279  1.45460656
   4.15782806  9.49668966  1.39819000
   4.11554879  6.82725641  4.13430587
   1.42501816  9.59850662  4.15146663
   0.12009228  5.46958088  5.46694051
   2.72791049  8.17909699  5.48023102
   2.75434666  5.53291477  8.19227569
   0.01543938  8.19073191  8.17442651
   1.38693295  6.82457931  6.82030375
   4.10358550  9.57785680  6.80575407
   4.10064366  6.91193187  9.53978313
   1.37313136  9.57042901  9.60382360
   5.43934646  0.12844122  0.13260491
   8.19340063  2.79342557  0.05793229
   8.20266683  0.07152494  2.81969051
   5.41479871  2.74349842  2.72564483
   6.82210372  1.43328306  1.46117511
   9.49323431  4.22613081  1.39059886
   9.57484022  1.45322560  4.15928033
   6.77278068  4.12327111  4.14030035
   5.50791460  0.10888122  5.45137711
   8.17761130  2.81811941  5.47723615
   8.20839847 10.85418701  8.20082492
   5.49821592  2.82228054  8.14699579
   6.83990809  1.38225230  6.82981836
   9.65253486  4.08374357  6.80648925
   9.56425359  1.44219043  9.51573681
   6.83144834  4.14147298  9.59270305
   5.45625840  5.41667270  0.07410478
   8.23082850  8.15460946 10.85132011
   8.13505976  5.55231415  2.84754565
   5.54165163  8.21448443  2.71687451
   6.90291585  6.80511662  1.31539811
   9.55136913  9.53203308  1.36923113
   9.57431336  6.82593574  4.18837710
   6.80066905  9.62656622  4.09721582
   5.50378321  5.45170946  5.51545334
   8.10749760  8.17791974  5.47855589
   8.23735383  5.43026917  8.19826420
   5.45443755  8.17680555  8.16084254
   6.81251750  6.79536693  6.93599083
   9.54651762  9.50430379  6.77593845
   9.60329206  6.83358807  9.52949885
   6.76889957  9.59906194  9.64788795
 


--------------------------------------------------------------------------------------------------------


 k-point   1 :   0.2500 0.2500 0.2500  plane waves:   11548
 k-point   2 :  -0.2500 0.2500 0.2500  plane waves:   11556
 k-point   3 :   0.2500-0.2500 0.2500  plane waves:   11545
 k-point   4 :  -0.2500-0.2500 0.2500  plane waves:   11545

 maximum and minimum number of plane-waves per node :       426      398

 maximum number of plane-waves:     11556
 maximum index in each direction: 
   IXMAX=   14   IYMAX=   14   IZMAX=   13
   IXMIN=  -14   IYMIN=  -14   IZMIN=  -14


 real space projection operators:
  total allocation   :       3495.06 KBytes
  max/ min on nodes  :        171.88         78.00


 parallel 3D FFT for wavefunctions:
    minimum data exchange during FFTs selected (reduces bandwidth)
 parallel 3D FFT for charge:
    minimum data exchange during FFTs selected (reduces bandwidth)


 total amount of memory used by VASP MPI-rank0    37846. kBytes
=======================================================================

   base      :      30000. kBytes
   nonlr-proj:       1206. kBytes
   fftplans  :        841. kBytes
   grid      :       1174. kBytes
   one-center:          9. kBytes
   wavefun   :       4616. kBytes
 
     INWAV:  cpu time     18.2697: real time     18.3113
 Broyden mixing: mesh for mixing (old mesh)
   NGX = 29   NGY = 29   NGZ = 29
  (NGX  = 84   NGY  = 84   NGZ  = 84)
  gives a total of  24389 points

 initial charge density was supplied:
 number of electron     256.0000038 magnetization 
 keeping initial charge density in first step


--------------------------------------------------------------------------------------------------------


 Maximum index for non-local projection operator          113
 Maximum index for augmentation-charges          183 (set IRDMAX)


--------------------------------------------------------------------------------------------------------


 First call to EWALD:  gamma=   0.163
 Maximum number of real-space cells 3x 3x 3
 Maximum number of reciprocal cells 3x 3x 3

    FEWALD:  cpu time      0.0412: real time      0.0412


--------------------------------------- Ionic step        1  -------------------------------------------




--------------------------------------- Iteration      1(   1)  ---------------------------------------


    POTLOK:  cpu time      0.3820: real time      0.4096
    SETDIJ:  cpu time      0.0231: real time      0.0232
     EDDAV:  cpu time     49.5529: real time     49.6642
       DOS:  cpu time      0.1375: real time      0.1377
    CHARGE:  cpu time      1.5030: real time      1.5063
    MIXING:  cpu time      0.1661: real time      0.1665
    --------------------------------------------
      LOOP:  cpu time     51.7645: real time     51.9075

 eigenvalue-minimisations  :  1639
 total energy-change (2. order) :-0.3350244E+03  (-0.5437529E+02)
 number of electron     256.0000050 magnetization 
 augmentation part      -14.6101838 magnetization 

 Broyden mixing:
  rms(total) = 0.46762E+00    rms(broyden)= 0.46762E+00
  rms(prec ) = 0.46943E+00
  weight for this iteration     100.00

 Free energy of the ion-electron system (eV)
  ---------------------------------------------------
  alpha Z        PSCENC =       107.18429362
  Ewald energy   TEWEN  =     -7300.91699588
  -Hartree energ DENC   =      -480.62640550
  -exchange      EXHF   =         0.00000000
  -V(xc)+E(xc)   XCENC  =      -575.26211318
  PAW double counting   =     32092.05881752   -30973.35019867
  entropy T*S    EENTRO =        -0.00000000
  eigenvalues    EBANDS =       199.93620953
  atomic energy  EATOM  =      6595.95197522
  Solvation  Ediel_sol  =         0.00000000
  ---------------------------------------------------
  free energy    TOTEN  =      -335.02441735 eV

  energy without entropy =     -335.02441735  energy(sigma->0) =     -335.02441735


--------------------------------------------------------------------------------------------------------




--------------------------------------- Iteration      1(   2)  ---------------------------------------


    POTLOK:  cpu time      0.0815: real time      0.0827
    SETDIJ:  cpu time      0.0019: real time      0.0019
    EDDIAG:  cpu time      6.7613: real time      6.7763
  RMM-DIIS:  cpu time     19.2861: real time     19.3291
    ORTHCH:  cpu time      0.3523: real time      0.3531
       DOS:  cpu time      0.0988: real time      0.0990
    CHARGE:  cpu time      2.5426: real time      2.5482
    MIXING:  cpu time      0.0004: real time      0.0004
    --------------------------------------------
      LOOP:  cpu time     29.1249: real time     29.1907

 eigenvalue-minimisations  :  1404
 total energy-change (2. order) :-0.8637146E+01  (-0.8642990E+01)
 number of electron     256.0000050 magnetization 
 augmentation part      -14.6654515 magnetization 

 Broyden mixing:
  rms(total) = 0.79563E-01    rms(broyden)= 0.79562E-01
  rms(prec ) = 0.81930E-01
  weight for this iteration     100.00

 eigenvalues of (default mixing * dielectric matrix)
  average eigenvalue GAMMA=   0.8747
  0.8747

 Free energy of the ion-electron system (eV)
  ---------------------------------------------------
  alpha Z        PSCENC =       107.18429362
  Ewald energy   TEWEN  =     -7300.91699588
  -Hartree energ DENC   =      -479.74757610
  -exchange      EXHF   =         0.00000000
  -V(xc)+E(xc)   XCENC  =      -575.29810587
  PAW double counting   =     34061.35608070   -32942.50520319
  entropy T*S    EENTRO =        -0.00000000
  eigenvalues    EBANDS =       190.31396848
  atomic energy  EATOM  =      6595.95197522
  Solvation  Ediel_sol  =         0.00000000
  ---------------------------------------------------
  free energy    TOTEN  =      -343.66156302 eV

  energy without entropy =     -343.66156302  energy(sigma->0) =     -343.66156302


--------------------------------------------------------------------------------------------------------




--------------------------------------- Iteration      1(   3)  ---------------------------------------


    POTLOK:  cpu time      0.1919: real time      0.1923
    SETDIJ:  cpu time      0.0019: real time      0.0019
    EDDIAG:  cpu time      6.1294: real time      6.1431
  RMM-DIIS:  cpu time     28.0665: real time     28.1298
    ORTHCH:  cpu time      0.3237: real time      0.3245
       DOS:  cpu time      0.1375: real time      0.1379
    CHARGE:  cpu time      2.6848: real time      2.6910
    MIXING:  cpu time      0.0003: real time      0.0003
    --------------------------------------------
      LOOP:  cpu time     37.5360: real time     37.6206

 eigenvalue-minimisations  :  1551
 total energy-change (2. order) :-0.1352541E+01  (-0.1471694E+01)
 number of electron     256.0000050 magnetization 
 augmentation part      -14.6590203 magnetization 

 Broyden mixing:
  rms(total) = 0.12686E+00    rms(broyden)= 0.12686E+00
  rms(prec ) = 0.12777E+00
  weight for this iteration     100.00

 eigenvalues of (default mixing * dielectric matrix)
  average eigenvalue GAMMA=   0.8347
  0.8347  0.8347

 Free energy of the ion-electron system (eV)
  ---------------------------------------------------
  alpha Z        PSCENC =       107.18429362
  Ewald energy   TEWEN  =     -7300.91699588
  -Hartree energ DENC   =      -479.96993360
  -exchange      EXHF   =         0.00000000
  -V(xc)+E(xc)   XCENC  =      -575.27724994
  PAW double counting   =     33927.44364263   -32808.61946672
  entropy T*S    EENTRO =        -0.00000000
  eigenvalues    EBANDS =       189.18963021
  atomic energy  EATOM  =      6595.95197522
  Solvation  Ediel_sol  =         0.00000000
  ---------------------------------------------------
  free energy    TOTEN  =      -345.01410447 eV

  energy without entropy =     -345.01410447  energy(sigma->0) =     -345.01410447


--------------------------------------------------------------------------------------------------------




--------------------------------------- Iteration      1(   4)  ---------------------------------------


    POTLOK:  cpu time      0.0447: real time      0.0463
    SETDIJ:  cpu time      0.0383: real time      0.0384
    EDDIAG:  cpu time      8.7176: real time      8.7374
  RMM-DIIS:  cpu time     28.1730: real time     28.2365
    ORTHCH:  cpu time      0.1122: real time      0.1124
       DOS:  cpu time      0.0013: real time      0.0013
    CHARGE:  cpu time      3.6513: real time      3.6595
    MIXING:  cpu time      0.0004: real time      0.0004
    --------------------------------------------
      LOOP:  cpu time     40.7387: real time     40.8322

 eigenvalue-minimisations  :  1633
 total energy-change (2. order) :-0.2734659E+00  (-0.2721732E+00)
 number of electron     256.0000050 magnetization 
 augmentation part      -14.6584937 magnetization 

 Broyden mixing:
  rms(total) = 0.11976E+00    rms(broyden)= 0.11976E+00
  rms(prec ) = 0.12062E+00
  weight for this iteration     100.00

 eigenvalues of (default mixing * dielectric matrix)
  average eigenvalue GAMMA=   1.0592
  0.7647  1.2064  1.2064

 Free energy of the ion-electron system (eV)
  ---------------------------------------------------
  alpha Z        PSCENC =       107.18429362
  Ewald energy   TEWEN  =     -7300.91699588
  -Hartree energ DENC   =      -480.10650940
  -exchange      EXHF   =         0.00000000
  -V(xc)+E(xc)   XCENC  =      -575.27737705
  PAW double counting   =     33511.12313835   -32392.32538878
  entropy T*S    EENTRO =        -0.00000000
  eigenvalues    EBANDS =       189.07929351
  atomic energy  EATOM  =      6595.95197522
  Solvation  Ediel_sol  =         0.00000000
  ---------------------------------------------------
  free energy    TOTEN  =      -345.28757041 eV

  energy without entropy =     -345.28757041  energy(sigma->0) =     -345.28757041


--------------------------------------------------------------------------------------------------------




--------------------------------------- Iteration      1(   5)  ---------------------------------------


    POTLOK:  cpu time      0.2299: real time      0.2305
    SETDIJ:  cpu time      0.1157: real time      0.1159
    EDDIAG:  cpu time      5.9836: real time      5.9973
  RMM-DIIS:  cpu time     26.4238: real time     26.4832
    ORTHCH:  cpu time      0.1438: real time      0.1442
       DOS:  cpu time      0.1350: real time      0.1353
    CHARGE:  cpu time      0.3595: real time      0.3604
    MIXING:  cpu time      0.0003: real time      0.0003
    --------------------------------------------
      LOOP:  cpu time     33.3918: real time     33.4672

 eigenvalue-minimisations  :  1619
 total energy-change (2. order) :-0.5117561E-01  (-0.5165633E-01)
 number of electron     256.0000050 magnetization 
 augmentation part      -14.6533367 magnetization 

 Broyden mixing:
  rms(total) = 0.81714E-01    rms(broyden)= 0.81714E-01
  rms(prec ) = 0.82188E-01
  weight for this iteration     100.00

 eigenvalues of (default mixing * dielectric matrix)
  average eigenvalue GAMMA=   1.3719
  1.8792  1.8792  0.8646  0.8646

 Free energy of the ion-electron system (eV)
  ---------------------------------------------------
  alpha Z        PSCENC =       107.18429362
  Ewald energy   TEWEN  =     -7300.91699588
  -Hartree energ DENC   =      -480.35062260
  -exchange      EXHF   =         0.00000000
  -V(xc)+E(xc)   XCENC  =      -575.27205896
  PAW double counting   =     32970.40808934   -31851.64269804
  entropy T*S    EENTRO =        -0.00000000
  eigenvalues    EBANDS =       189.29927129
  atomic energy  EATOM  =      6595.95197522
  Solvation  Ediel_sol  =         0.00000000
  ---------------------------------------------------
  free energy    TOTEN  =      -345.33874602 eV

  energy without entropy =     -345.33874602  energy(sigma->0) =     -345.33874602


--------------------------------------------------------------------------------------------------------




--------------------------------------- Iteration      1(   6)  ---------------------------------------


    POTLOK:  cpu time      0.0465: real time      0.0482
    SETDIJ:  cpu time      0.1287: real time      0.1290
    EDDIAG:  cpu time      6.8650: real time      6.8805
  RMM-DIIS:  cpu time     20.2952: real time     20.3400
    ORTHCH:  cpu time      0.2470: real time      0.2476
       DOS:  cpu time      0.0013: real time      0.0013
    CHARGE:  cpu time      0.8916: real time      0.8937
    MIXING:  cpu time      0.4139: real time      0.4149
    --------------------------------------------
      LOOP:  cpu time     28.8893: real time     28.9552

 eigenvalue-minimisations  :  1604
 total energy-change (2. order) :-0.1054505E-01  (-0.1082538E-01)
 number of electron     256.0000050 magnetization 
 augmentation part      -14.6487947 magnetization 

 Broyden mixing:
  rms(total) = 0.10417E-01    rms(broyden)= 0.10417E-01
  rms(prec ) = 0.10918E-01
  weight for this iteration     100.00

 eigenvalues of (default mixing * dielectric matrix)
  average eigenvalue GAMMA=   1.2721
  2.2025  1.1593  1.1593  1.0571  0.7827

 Free energy of the ion-electron system (eV)
  ---------------------------------------------------
  alpha Z        PSCENC =       107.18429362
  Ewald energy   TEWEN  =     -7300.91699588
  -Hartree energ DENC   =      -480.79362967
  -exchange      EXHF   =         0.00000000
  -V(xc)+E(xc)   XCENC  =      -575.26155427
  PAW double counting   =     31958.91142721   -30840.20093702
  entropy T*S    EENTRO =        -0.00000000
  eigenvalues    EBANDS =       189.77612973
  atomic energy  EATOM  =      6595.95197522
  Solvation  Ediel_sol  =         0.00000000
  ---------------------------------------------------
  free energy    TOTEN  =      -345.34929107 eV

  energy without entropy =     -345.34929107  energy(sigma->0) =     -345.34929107


--------------------------------------------------------------------------------------------------------




--------------------------------------- Iteration      1(   7)  ---------------------------------------


    POTLOK:  cpu time      0.5334: real time      0.5346
    SETDIJ:  cpu time      0.0019: real time      0.0019
    EDDIAG:  cpu time      7.2035: real time      7.2199
  RMM-DIIS:  cpu time     29.8154: real time     29.8810
    ORTHCH:  cpu time      0.2147: real time      0.2152
       DOS:  cpu time      0.0745: real time      0.0746
    CHARGE:  cpu time      1.1930: real time      1.1956
    MIXING:  cpu time      0.2337: real time      0.2342
    --------------------------------------------
      LOOP:  cpu time     39.2700: real time     39.3570

 eigenvalue-minimisations  :  1511
 total energy-change (2. order) :-0.2445134E-02  (-0.2423301E-02)
 number of electron     256.0000050 magnetization 
 augmentation part      -14.6480783 magnetization 

 Broyden mixing:
  rms(total) = 0.16513E-01    rms(broyden)= 0.16513E-01
  rms(prec ) = 0.16827E-01
  weight for this iteration     100.00

 eigenvalues of (default mixing * dielectric matrix)
  average eigenvalue GAMMA=   1.3473
  2.3368  1.5475  1.5475  1.0492  0.8013  0.8013

 Free energy of the ion-electron system (eV)
  ---------------------------------------------------
  alpha Z        PSCENC =       107.18429362
  Ewald energy   TEWEN  =     -7300.91699588
  -Hartree energ DENC   =      -480.81095825
  -exchange      EXHF   =         0.00000000
  -V(xc)+E(xc)   XCENC  =      -575.26255168
  PAW double counting   =     31868.20060025   -30749.49460093
  entropy T*S    EENTRO =        -0.00000000
  eigenvalues    EBANDS =       189.79650146
  atomic energy  EATOM  =      6595.95197522
  Solvation  Ediel_sol  =         0.00000000
  ---------------------------------------------------
  free energy    TOTEN  =      -345.35173620 eV

  energy without entropy =     -345.35173620  energy(sigma->0) =     -345.35173620


--------------------------------------------------------------------------------------------------------




--------------------------------------- Iteration      1(   8)  ---------------------------------------


    POTLOK:  cpu time      0.0594: real time      0.0606
    SETDIJ:  cpu time      0.0702: real time      0.0704
    EDDIAG:  cpu time      6.0964: real time      6.1100
  RMM-DIIS:  cpu time     19.9360: real time     19.9798
    ORTHCH:  cpu time      0.5131: real time      0.5142
       DOS:  cpu time      0.1048: real time      0.1050
    CHARGE:  cpu time      4.2847: real time      4.2940
    MIXING:  cpu time      0.0233: real time      0.0233
    --------------------------------------------
      LOOP:  cpu time     31.0878: real time     31.1574

 eigenvalue-minimisations  :  1258
 total energy-change (2. order) :-0.4973764E-03  (-0.5581764E-03)
 number of electron     256.0000050 magnetization 
 augmentation part      -14.6484353 magnetization 

 Broyden mixing:
  rms(total) = 0.39938E-02    rms(broyden)= 0.39938E-02
  rms(prec ) = 0.41092E-02
  weight for this iteration     100.00

 eigenvalues of (default mixing * dielectric matrix)
  average eigenvalue GAMMA=   1.3886
  2.6270  1.7168  1.7168  0.9791  0.9791  0.8024  0.8994

 Free energy of the ion-electron system (eV)
  ---------------------------------------------------
  alpha Z        PSCENC =       107.18429362
  Ewald energy   TEWEN  =     -7300.91699588
  -Hartree energ DENC   =      -480.69580042
  -exchange      EXHF   =         0.00000000
  -V(xc)+E(xc)   XCENC  =      -575.26524528
  PAW double counting   =     32109.56047326   -30990.83979301
  entropy T*S    EENTRO =        -0.00000000
  eigenvalues    EBANDS =       189.66885892
  atomic energy  EATOM  =      6595.95197522
  Solvation  Ediel_sol  =         0.00000000
  ---------------------------------------------------
  free energy    TOTEN  =      -345.35223358 eV

  energy without entropy =     -345.35223358  energy(sigma->0) =     -345.35223358


--------------------------------------------------------------------------------------------------------




--------------------------------------- Iteration      1(   9)  ---------------------------------------


    POTLOK:  cpu time      0.1982: real time      0.1987
    SETDIJ:  cpu time      0.1336: real time      0.1339
    EDDIAG:  cpu time      6.3859: real time      6.4001
  RMM-DIIS:  cpu time     26.3239: real time     26.3819
    ORTHCH:  cpu time      0.4141: real time      0.4151
       DOS:  cpu time      0.1308: real time      0.1310
    CHARGE:  cpu time      2.9781: real time      2.9847
    MIXING:  cpu time      0.0004: real time      0.0004
    --------------------------------------------
      LOOP:  cpu time     36.5650: real time     36.6458

 eigenvalue-minimisations  :  1138
 total energy-change (2. order) :-0.1350496E-03  (-0.1380654E-03)
 number of electron     256.0000050 magnetization 
 augmentation part      -14.6483506 magnetization 

 Broyden mixing:
  rms(total) = 0.50106E-02    rms(broyden)= 0.50106E-02
  rms(prec ) = 0.50909E-02
  weight for this iteration     100.00

 eigenvalues of (default mixing * dielectric matrix)
  average eigenvalue GAMMA=   1.3896
  2.5804  1.6085  1.6085  1.3558  1.3558  0.8391  0.8391  0.9297

 Free energy of the ion-electron system (eV)
  ---------------------------------------------------
  alpha Z        PSCENC =       107.18429362
  Ewald energy   TEWEN  =     -7300.91699588
  -Hartree energ DENC   =      -480.68488815
  -exchange      EXHF   =         0.00000000
  -V(xc)+E(xc)   XCENC  =      -575.26533260
  PAW double counting   =     32124.63660174   -31005.91309660
  entropy T*S    EENTRO =        -0.00000000
  eigenvalues    EBANDS =       189.65507401
  atomic energy  EATOM  =      6595.95197522
  Solvation  Ediel_sol  =         0.00000000
  ---------------------------------------------------
  free energy    TOTEN  =      -345.35236863 eV

  energy without entropy =     -345.35236863  energy(sigma->0) =     -345.35236863


--------------------------------------------------------------------------------------------------------




--------------------------------------- Iteration      1(  10)  ---------------------------------------


    POTLOK:  cpu time      0.0467: real time      0.0478
    SETDIJ:  cpu time      0.1168: real time      0.1170
    EDDIAG:  cpu time      4.7020: real time      4.7123
  RMM-DIIS:  cpu time      8.0512: real time      8.0689
    ORTHCH:  cpu time      0.4568: real time      0.4578
       DOS:  cpu time      0.1208: real time      0.1210
    --------------------------------------------
      LOOP:  cpu time     13.4943: real time     13.5249

 eigenvalue-minimisations  :   988
 total energy-change (2. order) :-0.2727672E-04  (-0.3279001E-04)
 number of electron     256.0000050 magnetization 
 augmentation part      -14.6483506 magnetization 

 Free energy of the ion-electron system (eV)
  ---------------------------------------------------
  alpha Z        PSCENC =       107.18429362
  Ewald energy   TEWEN  =     -7300.91699588
  -Hartree energ DENC   =      -480.72472801
  -exchange      EXHF   =         0.00000000
  -V(xc)+E(xc)   XCENC  =      -575.26428801
  PAW double counting   =     32039.23952692   -30920.52013595
  entropy T*S    EENTRO =        -0.00000000
  eigenvalues    EBANDS =       189.69795619
  atomic energy  EATOM  =      6595.95197522
  Solvation  Ediel_sol  =         0.00000000
  ---------------------------------------------------
  free energy    TOTEN  =      -345.35239590 eV

  energy without entropy =     -345.35239590  energy(sigma->0) =     -345.35239590


--------------------------------------------------------------------------------------------------------




 average (electrostatic) potential at core
  the test charge radii are     0.9892
  (the norm of the test charge is              1.0000)
       1 -83.2668       2 -83.2760       3 -83.3063       4 -83.3271       5 -83.3294
       6 -83.2990       7 -83.2849       8 -83.2873       9 -83.3140      10 -83.3379
      11 -83.3124      12 -83.2696      13 -83.2891      14 -83.2951      15 -83.2888
      16 -83.3431      17 -83.3144      18 -83.3131      19 -83.2775      20 -83.2988
      21 -83.2937      22 -83.2853      23 -83.3347      24 -83.2738      25 -83.3136
      26 -83.2818      27 -83.2923      28 -83.3027      29 -83.2886      30 -83.3159
      31 -83.3029      32 -83.2862      33 -83.3113      34 -83.3008      35 -83.2777
      36 -83.2981      37 -83.2998      38 -83.2971      39 -83.2786      40 -83.3258
      41 -83.2894      42 -83.3038      43 -83.3054      44 -83.3036      45 -83.3049
      46 -83.3127      47 -83.3113      48 -83.2647      49 -83.3597      50 -83.2847
      51 -83.2999      52 -83.3116      53 -83.3039      54 -83.3193      55 -83.3173
      56 -83.2921      57 -83.2725      58 -83.3138      59 -83.3042      60 -83.2829
      61 -83.3120      62 -83.2901      63 -83.2576      64 -83.3266
 
 
 
 E-fermi :   6.0555     XC(G=0):  -9.3960     alpha+bet :-11.9324

 Fermi energy:         6.0554898918

 k-point     1 :       0.2500    0.2500    0.2500
  band No.  band energies     occupation 
      1      -5.9558      2.00000
      2      -5.4727      2.00000
      3      -5.3985      2.00000
      4      -5.3837      2.00000
      5      -4.9592      2.00000
      6      -4.8973      2.00000
      7      -4.8653      2.00000
      8      -4.4756      2.00000
      9      -4.4218      2.00000
     10      -4.3533      2.00000
     11      -4.3392      2.00000
     12      -3.9958      2.00000
     13      -3.9944      2.00000
     14      -3.9508      2.00000
     15      -3.9300      2.00000
     16      -3.8877      2.00000
     17      -3.8646      2.00000
     18      -3.7880      2.00000
     19      -3.7169      2.00000
     20      -3.6837      2.00000
     21      -3.3029      2.00000
     22      -3.2224      2.00000
     23      -3.2038      2.00000
     24      -2.9098      2.00000
     25      -2.8668      2.00000
     26      -2.8275      2.00000
     27      -2.7419      2.00000
     28      -2.7275      2.00000
     29      -2.6943      2.00000
     30      -2.6685      2.00000
     31      -2.6281      2.00000
     32      -2.6095      2.00000
     33      -1.2034      2.00000
     34      -1.1701      2.00000
     35      -1.1549      2.00000
     36      -1.1338      2.00000
     37      -1.1205      2.00000
     38      -1.1024      2.00000
     39      -1.0639      2.00000
     40      -1.0295      2.00000
     41      -0.9962      2.00000
     42      -0.9615      2.00000
     43      -0.9252      2.00000
     44      -0.8981      2.00000
     45      -0.8567      2.00000
     46      -0.8276      2.00000
     47      -0.7757      2.00000
     48      -0.1407      2.00000
     49      -0.1123      2.00000
     50      -0.0712      2.00000
     51      -0.0416      2.00000
     52      -0.0305      2.00000
     53      -0.0054      2.00000
     54       0.0087      2.00000
     55       0.8424      2.00000
     56       0.8633      2.00000
     57       0.8881      2.00000
     58       1.1482      2.00000
     59       1.1690      2.00000
     60       1.1963      2.00000
     61       1.7062      2.00000
     62       1.7159      2.00000
     63       1.7330      2.00000
     64       1.7507      2.00000
     65       1.7657      2.00000
     66       1.7735      2.00000
     67       1.8028      2.00000
     68       1.8116      2.00000
     69       1.8399      2.00000
     70       2.3245      2.00000
     71       2.3630      2.00000
     72       2.3839      2.00000
     73       2.4260      2.00000
     74       2.4457      2.00000
     75       2.4704      2.00000
     76       2.4823      2.00000
     77       2.4999      2.00000
     78       2.5217      2.00000
     79       2.5568      2.00000
     80       2.5790      2.00000
     81       2.5985      2.00000
     82       2.7925      2.00000
     83       2.8122      2.00000
     84       2.8311      2.00000
     85       2.8556      2.00000
     86       2.8747      2.00000
     87       2.9028      2.00000
     88       3.0773      2.00000
     89       3.0913      2.00000
     90       3.1081      2.00000
     91       3.1334      2.00000
     92       3.1633      2.00000
     93       3.1799      2.00000
     94       3.4467      2.00000
     95       3.4731      2.00000
     96       3.4980      2.00000
     97       3.5240      2.00000
     98       3.5434      2.00000
     99       3.5594      2.00000
    100       3.5939      2.00000
    101       3.6065      2.00000
    102       3.6247      2.00000
    103       3.8065      2.00000
    104       3.8343      2.00000
    105       3.8667      2.00000
    106       3.8828      2.00000
    107       3.8924      2.00000
    108       3.9047      2.00000
    109       3.9416      2.00000
    110       3.9733      2.00000
    111       3.9960      2.00000
    112       4.2107      2.00000
    113       4.2233      2.00000
    114       4.2494      2.00000
    115       4.2748      2.00000
    116       4.4494      2.00000
    117       4.4896      2.00000
    118       4.5159      2.00000
    119       4.5566      2.00000
    120       4.5841      2.00000
    121       4.6220      2.00000
    122       4.7048      2.00000
    123       4.7420      2.00000
    124       4.9958      2.00000
    125       5.0329      2.00000
    126       5.0712      2.00000
    127       5.4965      2.00000
    128       5.5318      2.00000
    129       6.6447      0.00000
    130       6.6771      0.00000
    131       6.7248      0.00000
    132       7.1116      0.00000
    133       7.1420      0.00000
    134       7.1535      0.00000
    135       7.4216      0.00000
    136       7.5957      0.00000
    137       7.6165      0.00000
    138       7.6370      0.00000
    139       7.7261      0.00000
    140       7.7613      0.00000
    141       7.8179      0.00000
    142       7.8929      0.00000
    143       7.9231      0.00000
    144       7.9293      0.00000
    145       7.9530      0.00000
    146       7.9871      0.00000
    147       8.0102      0.00000
    148       8.1198      0.00000
    149       8.1589      0.00000
    150       8.1873      0.00000
    151       8.1970      0.00000
    152       8.2208      0.00000
    153       8.2541      0.00000
    154       8.2779      0.00000
    155       8.4676      0.00000
    156       8.4898      0.00000
    157       8.5094      0.00000
    158       8.5948      0.00000
    159       8.6315      0.00000
    160       8.6512      0.00000
    161       8.6846      0.00000

 k-point     2 :      -0.2500    0.2500    0.2500
  band No.  band energies     occupation 
      1      -5.9559      2.00000
      2      -5.4668      2.00000
      3      -5.4050      2.00000
      4      -5.3843      2.00000
      5      -4.9500      2.00000
      6      -4.8988      2.00000
      7      -4.8790      2.00000
      8      -4.4801      2.00000
      9      -4.3890      2.00000
     10      -4.3549      2.00000
     11      -4.3358      2.00000
     12      -4.0137      2.00000
     13      -3.9800      2.00000
     14      -3.9634      2.00000
     15      -3.9486      2.00000
     16      -3.9108      2.00000
     17      -3.8450      2.00000
     18      -3.7820      2.00000
     19      -3.7317      2.00000
     20      -3.6823      2.00000
     21      -3.2631      2.00000
     22      -3.2253      2.00000
     23      -3.1956      2.00000
     24      -2.9245      2.00000
     25      -2.8689      2.00000
     26      -2.8364      2.00000
     27      -2.7323      2.00000
     28      -2.7173      2.00000
     29      -2.6939      2.00000
     30      -2.6657      2.00000
     31      -2.6556      2.00000
     32      -2.6043      2.00000
     33      -1.1883      2.00000
     34      -1.1751      2.00000
     35      -1.1529      2.00000
     36      -1.1383      2.00000
     37      -1.1058      2.00000
     38      -1.0972      2.00000
     39      -1.0838      2.00000
     40      -1.0030      2.00000
     41      -0.9757      2.00000
     42      -0.9484      2.00000
     43      -0.9303      2.00000
     44      -0.9090      2.00000
     45      -0.8776      2.00000
     46      -0.8436      2.00000
     47      -0.8051      2.00000
     48      -0.1682      2.00000
     49      -0.0852      2.00000
     50      -0.0716      2.00000
     51      -0.0536      2.00000
     52      -0.0301      2.00000
     53      -0.0035      2.00000
     54       0.0607      2.00000
     55       0.8150      2.00000
     56       0.8425      2.00000
     57       0.8633      2.00000
     58       1.1644      2.00000
     59       1.1796      2.00000
     60       1.1894      2.00000
     61       1.7036      2.00000
     62       1.7063      2.00000
     63       1.7421      2.00000
     64       1.7550      2.00000
     65       1.7627      2.00000
     66       1.7892      2.00000
     67       1.8052      2.00000
     68       1.8265      2.00000
     69       1.8408      2.00000
     70       2.3121      2.00000
     71       2.3542      2.00000
     72       2.3690      2.00000
     73       2.4450      2.00000
     74       2.4486      2.00000
     75       2.4732      2.00000
     76       2.4899      2.00000
     77       2.5214      2.00000
     78       2.5370      2.00000
     79       2.5792      2.00000
     80       2.5954      2.00000
     81       2.6067      2.00000
     82       2.7948      2.00000
     83       2.8069      2.00000
     84       2.8272      2.00000
     85       2.8432      2.00000
     86       2.8768      2.00000
     87       2.8935      2.00000
     88       3.1027      2.00000
     89       3.1210      2.00000
     90       3.1333      2.00000
     91       3.1404      2.00000
     92       3.1499      2.00000
     93       3.1673      2.00000
     94       3.4245      2.00000
     95       3.4584      2.00000
     96       3.4758      2.00000
     97       3.4939      2.00000
     98       3.5184      2.00000
     99       3.5382      2.00000
    100       3.5921      2.00000
    101       3.6143      2.00000
    102       3.6250      2.00000
    103       3.8080      2.00000
    104       3.8187      2.00000
    105       3.8401      2.00000
    106       3.8784      2.00000
    107       3.9024      2.00000
    108       3.9122      2.00000
    109       3.9239      2.00000
    110       3.9481      2.00000
    111       3.9882      2.00000
    112       4.1895      2.00000
    113       4.2519      2.00000
    114       4.2562      2.00000
    115       4.2733      2.00000
    116       4.4754      2.00000
    117       4.4967      2.00000
    118       4.5152      2.00000
    119       4.5256      2.00000
    120       4.5564      2.00000
    121       4.5899      2.00000
    122       4.7351      2.00000
    123       4.7532      2.00000
    124       5.0219      2.00000
    125       5.0568      2.00000
    126       5.0781      2.00000
    127       5.5299      2.00000
    128       5.5398      2.00000
    129       6.6803      0.00000
    130       6.6994      0.00000
    131       6.7263      0.00000
    132       7.1273      0.00000
    133       7.1411      0.00000
    134       7.1709      0.00000
    135       7.4448      0.00000
    136       7.6307      0.00000
    137       7.6531      0.00000
    138       7.6902      0.00000
    139       7.6966      0.00000
    140       7.7311      0.00000
    141       7.7880      0.00000
    142       7.9107      0.00000
    143       7.9358      0.00000
    144       7.9524      0.00000
    145       7.9770      0.00000
    146       7.9930      0.00000
    147       8.0096      0.00000
    148       8.1235      0.00000
    149       8.1558      0.00000
    150       8.1967      0.00000
    151       8.3751      0.00000
    152       8.4872      0.00000
    153       8.6290      0.00000
    154       8.7615      0.00000
    155       9.2546      0.00000
    156       9.2650      0.00000
    157       9.3218      0.00000
    158       9.3446      0.00000
    159       9.5759      0.00000
    160       9.8858      0.00000
    161      10.1149      0.00000

 k-point     3 :       0.2500   -0.2500    0.2500
  band No.  band energies     occupation 
      1      -5.9555      2.00000
      2      -5.4742      2.00000
      3      -5.3989      2.00000
      4      -5.3830      2.00000
      5      -4.9596      2.00000
      6      -4.8962      2.00000
      7      -4.8658      2.00000
      8      -4.4725      2.00000
      9      -4.4207      2.00000
     10      -4.3542      2.00000
     11      -4.3319      2.00000
     12      -4.0110      2.00000
     13      -3.9928      2.00000
     14      -3.9502      2.00000
     15      -3.9254      2.00000
     16      -3.9103      2.00000
     17      -3.8546      2.00000
     18      -3.7639      2.00000
     19      -3.7231      2.00000
     20      -3.7043      2.00000
     21      -3.2871      2.00000
     22      -3.2186      2.00000
     23      -3.1985      2.00000
     24      -2.8978      2.00000
     25      -2.8776      2.00000
     26      -2.8411      2.00000
     27      -2.7370      2.00000
     28      -2.7190      2.00000
     29      -2.6917      2.00000
     30      -2.6784      2.00000
     31      -2.6421      2.00000
     32      -2.6018      2.00000
     33      -1.1897      2.00000
     34      -1.1815      2.00000
     35      -1.1617      2.00000
     36      -1.1424      2.00000
     37      -1.1195      2.00000
     38      -1.0932      2.00000
     39      -1.0633      2.00000
     40      -1.0245      2.00000
     41      -0.9906      2.00000
     42      -0.9381      2.00000
     43      -0.9347      2.00000
     44      -0.9036      2.00000
     45      -0.8687      2.00000
     46      -0.8290      2.00000
     47      -0.7774      2.00000
     48      -0.1567      2.00000
     49      -0.0944      2.00000
     50      -0.0792      2.00000
     51      -0.0480      2.00000
     52      -0.0239      2.00000
     53      -0.0092      2.00000
     54       0.0298      2.00000
     55       0.8293      2.00000
     56       0.8552      2.00000
     57       0.8869      2.00000
     58       1.1479      2.00000
     59       1.1768      2.00000
     60       1.1899      2.00000
     61       1.6989      2.00000
     62       1.7281      2.00000
     63       1.7345      2.00000
     64       1.7494      2.00000
     65       1.7609      2.00000
     66       1.7667      2.00000
     67       1.7983      2.00000
     68       1.8182      2.00000
     69       1.8285      2.00000
     70       2.3357      2.00000
     71       2.3588      2.00000
     72       2.3739      2.00000
     73       2.4368      2.00000
     74       2.4576      2.00000
     75       2.4699      2.00000
     76       2.4888      2.00000
     77       2.5061      2.00000
     78       2.5210      2.00000
     79       2.5557      2.00000
     80       2.5879      2.00000
     81       2.6046      2.00000
     82       2.7902      2.00000
     83       2.8055      2.00000
     84       2.8381      2.00000
     85       2.8574      2.00000
     86       2.8823      2.00000
     87       2.9023      2.00000
     88       3.0763      2.00000
     89       3.1058      2.00000
     90       3.1118      2.00000
     91       3.1349      2.00000
     92       3.1602      2.00000
     93       3.1738      2.00000
     94       3.4481      2.00000
     95       3.4786      2.00000
     96       3.4958      2.00000
     97       3.5269      2.00000
     98       3.5369      2.00000
     99       3.5628      2.00000
    100       3.5919      2.00000
    101       3.5987      2.00000
    102       3.6255      2.00000
    103       3.8018      2.00000
    104       3.8331      2.00000
    105       3.8759      2.00000
    106       3.8877      2.00000
    107       3.8981      2.00000
    108       3.9174      2.00000
    109       3.9218      2.00000
    110       3.9412      2.00000
    111       3.9821      2.00000
    112       4.2073      2.00000
    113       4.2214      2.00000
    114       4.2495      2.00000
    115       4.2710      2.00000
    116       4.4675      2.00000
    117       4.4757      2.00000
    118       4.5102      2.00000
    119       4.5522      2.00000
    120       4.5785      2.00000
    121       4.6120      2.00000
    122       4.7044      2.00000
    123       4.7503      2.00000
    124       5.0139      2.00000
    125       5.0294      2.00000
    126       5.0728      2.00000
    127       5.4983      2.00000
    128       5.5391      2.00000
    129       6.6605      0.00000
    130       6.6788      0.00000
    131       6.7077      0.00000
    132       7.1255      0.00000
    133       7.1361      0.00000
    134       7.1550      0.00000
    135       7.4173      0.00000
    136       7.6136      0.00000
    137       7.6170      0.00000
    138       7.6426      0.00000
    139       7.7536      0.00000
    140       7.7629      0.00000
    141       7.7954      0.00000
    142       7.8879      0.00000
    143       7.9275      0.00000
    144       7.9484      0.00000
    145       7.9646      0.00000
    146       7.9894      0.00000
    147       8.0120      0.00000
    148       8.1495      0.00000
    149       8.1966      0.00000
    150       8.2172      0.00000
    151       8.3380      0.00000
    152       8.4859      0.00000
    153       8.6247      0.00000
    154       8.7339      0.00000
    155       9.2697      0.00000
    156       9.3246      0.00000
    157       9.3427      0.00000
    158       9.3686      0.00000
    159       9.3800      0.00000
    160       9.7644      0.00000
    161      10.0907      0.00000

 k-point     4 :      -0.2500   -0.2500    0.2500
  band No.  band energies     occupation 
      1      -5.9561      2.00000
      2      -5.4649      2.00000
      3      -5.4000      2.00000
      4      -5.3907      2.00000
      5      -4.9464      2.00000
      6      -4.8949      2.00000
      7      -4.8880      2.00000
      8      -4.4719      2.00000
      9      -4.4036      2.00000
     10      -4.3534      2.00000
     11      -4.3391      2.00000
     12      -4.0031      2.00000
     13      -3.9860      2.00000
     14      -3.9534      2.00000
     15      -3.9311      2.00000
     16      -3.9035      2.00000
     17      -3.8779      2.00000
     18      -3.7680      2.00000
     19      -3.7351      2.00000
     20      -3.6792      2.00000
     21      -3.2766      2.00000
     22      -3.2251      2.00000
     23      -3.2082      2.00000
     24      -2.9162      2.00000
     25      -2.8804      2.00000
     26      -2.8101      2.00000
     27      -2.7471      2.00000
     28      -2.7143      2.00000
     29      -2.6929      2.00000
     30      -2.6771      2.00000
     31      -2.6341      2.00000
     32      -2.6087      2.00000
     33      -1.1930      2.00000
     34      -1.1781      2.00000
     35      -1.1555      2.00000
     36      -1.1476      2.00000
     37      -1.1308      2.00000
     38      -1.0964      2.00000
     39      -1.0625      2.00000
     40      -1.0259      2.00000
     41      -0.9873      2.00000
     42      -0.9598      2.00000
     43      -0.9220      2.00000
     44      -0.8904      2.00000
     45      -0.8622      2.00000
     46      -0.8164      2.00000
     47      -0.7912      2.00000
     48      -0.1562      2.00000
     49      -0.0876      2.00000
     50      -0.0769      2.00000
     51      -0.0679      2.00000
     52      -0.0221      2.00000
     53      -0.0014      2.00000
     54       0.0286      2.00000
     55       0.8400      2.00000
     56       0.8492      2.00000
     57       0.8755      2.00000
     58       1.1508      2.00000
     59       1.1862      2.00000
     60       1.1922      2.00000
     61       1.6988      2.00000
     62       1.7097      2.00000
     63       1.7409      2.00000
     64       1.7474      2.00000
     65       1.7727      2.00000
     66       1.7795      2.00000
     67       1.7964      2.00000
     68       1.8151      2.00000
     69       1.8327      2.00000
     70       2.3306      2.00000
     71       2.3596      2.00000
     72       2.3740      2.00000
     73       2.4188      2.00000
     74       2.4574      2.00000
     75       2.4672      2.00000
     76       2.4956      2.00000
     77       2.5145      2.00000
     78       2.5274      2.00000
     79       2.5560      2.00000
     80       2.5705      2.00000
     81       2.5988      2.00000
     82       2.7979      2.00000
     83       2.8295      2.00000
     84       2.8368      2.00000
     85       2.8491      2.00000
     86       2.8615      2.00000
     87       2.9000      2.00000
     88       3.0834      2.00000
     89       3.0958      2.00000
     90       3.1209      2.00000
     91       3.1354      2.00000
     92       3.1474      2.00000
     93       3.1744      2.00000
     94       3.4605      2.00000
     95       3.4833      2.00000
     96       3.4942      2.00000
     97       3.5080      2.00000
     98       3.5317      2.00000
     99       3.5630      2.00000
    100       3.5949      2.00000
    101       3.6033      2.00000
    102       3.6261      2.00000
    103       3.8052      2.00000
    104       3.8283      2.00000
    105       3.8771      2.00000
    106       3.8821      2.00000
    107       3.8972      2.00000
    108       3.9078      2.00000
    109       3.9356      2.00000
    110       3.9612      2.00000
    111       3.9756      2.00000
    112       4.2069      2.00000
    113       4.2251      2.00000
    114       4.2417      2.00000
    115       4.2765      2.00000
    116       4.4697      2.00000
    117       4.4874      2.00000
    118       4.5094      2.00000
    119       4.5588      2.00000
    120       4.5774      2.00000
    121       4.5998      2.00000
    122       4.7195      2.00000
    123       4.7482      2.00000
    124       5.0178      2.00000
    125       5.0276      2.00000
    126       5.0589      2.00000
    127       5.5006      2.00000
    128       5.5382      2.00000
    129       6.6521      0.00000
    130       6.6708      0.00000
    131       6.7301      0.00000
    132       7.1123      0.00000
    133       7.1353      0.00000
    134       7.1643      0.00000
    135       7.4217      0.00000
    136       7.5970      0.00000
    137       7.6172      0.00000
    138       7.6530      0.00000
    139       7.7231      0.00000
    140       7.7752      0.00000
    141       7.8092      0.00000
    142       7.8812      0.00000
    143       7.9302      0.00000
    144       7.9533      0.00000
    145       7.9616      0.00000
    146       7.9748      0.00000
    147       8.0279      0.00000
    148       8.1282      0.00000
    149       8.1534      0.00000
    150       8.2035      0.00000
    151       8.2146      0.00000
    152       8.2681      0.00000
    153       8.3230      0.00000
    154       8.4806      0.00000
    155       8.4931      0.00000
    156       8.6085      0.00000
    157       8.6699      0.00000
    158       8.7003      0.00000
    159       8.7815      0.00000
    160       9.3235      0.00000
    161       9.3694      0.00000


--------------------------------------------------------------------------------------------------------


 soft charge-density along one line, spin component           1
         0         1         2         3         4         5         6         7         8         9
 total charge-density along one line
 
 pseudopotential strength for first ion, spin component:           1
 18.415  25.693   0.000   0.000   0.001   0.001   0.000   0.001
 25.693  35.850   0.000   0.000   0.001   0.001   0.000   0.002
  0.000   0.000   4.178   0.000  -0.000   7.786   0.001  -0.000
  0.000   0.000   0.000   4.178  -0.000   0.001   7.786  -0.000
  0.001   0.001  -0.000  -0.000   4.178  -0.000  -0.000   7.786
  0.001   0.001   7.786   0.001  -0.000  14.519   0.001  -0.000
  0.000   0.000   0.001   7.786  -0.000   0.001  14.520  -0.001
  0.001   0.002  -0.000  -0.000   7.786  -0.000  -0.001  14.520
 total augmentation occupancy for first ion, spin component:           1
  5.968  -2.297  -0.099  -0.089   0.192   0.035   0.032  -0.068
 -2.297   0.995   0.063   0.047  -0.094  -0.019  -0.015   0.031
 -0.099   0.063   3.333   0.165  -0.052  -0.810  -0.051   0.016
 -0.089   0.047   0.165   3.286  -0.000  -0.051  -0.794   0.001
  0.192  -0.094  -0.052  -0.000   3.292   0.015   0.001  -0.796
  0.035  -0.019  -0.810  -0.051   0.015   0.205   0.015  -0.005
  0.032  -0.015  -0.051  -0.794   0.001   0.015   0.200  -0.000
 -0.068   0.031   0.016   0.001  -0.796  -0.005  -0.000   0.200


------------------------ aborting loop because EDIFF is reached ----------------------------------------


    CHARGE:  cpu time      2.6344: real time      2.6401
    FORLOC:  cpu time      0.0387: real time      0.0388
    FORNL :  cpu time     10.3817: real time     10.4046
    STRESS:  cpu time     33.5483: real time     33.6230
    FORCOR:  cpu time      0.4094: real time      0.4103
    FORHAR:  cpu time      0.2020: real time      0.2026
    MIXING:  cpu time      0.2148: real time      0.2153
    OFIELD:  cpu time      0.0000: real time      0.0000

  FORCE on cell =-STRESS in cart. coord.  units (eV):
  Direction    XX          YY          ZZ          XY          YZ          ZX
  --------------------------------------------------------------------------------------
  Alpha Z   107.18429   107.18429   107.18429
  Ewald   -2433.58998 -2434.02514 -2433.34712   -11.12547     5.73760    -7.60510
  Hartree   160.09241   159.90881   160.70741    -1.21888     0.42536    -0.33417
  E(xc)    -811.52815  -811.50735  -811.51854     0.08130    -0.03945     0.05767
  Local    -941.81906  -941.21344  -942.77411    11.48893    -5.67923     7.32267
  n-local  2493.34795  2493.06793  2493.19921    -2.15791     1.14811    -1.60704
  augment  -372.03813  -372.00392  -372.02227     0.07920    -0.02671     0.04218
  Kinetic  1810.22308  1809.90670  1810.10801     1.58206    -1.23505     1.63043
  Fock        0.00000     0.00000     0.00000     0.00000     0.00000     0.00000
  -------------------------------------------------------------------------------------
  Total      11.87241    11.31788    11.53690    -1.27077     0.33063    -0.49335
  in kB      14.78653    14.09589    14.36866    -1.58268     0.41179    -0.61445
  external pressure =       14.42 kB  Pullay stress =        0.00 kB


 VOLUME and BASIS-vectors are now :
 -----------------------------------------------------------------------------
  energy-cutoff  :      250.00
  volume of cell :     1286.42
      direct lattice vectors                 reciprocal lattice vectors
    10.873821670  0.000000000  0.000000000     0.091963987  0.000023692  0.000075106
    -0.002802370 10.877958070  0.000000000     0.000000000  0.091929018 -0.000070550
    -0.008884190  0.008346340 10.875612260     0.000000000  0.000000000  0.091948846

  length of vectors
    10.873821670 10.877958431 10.875619091     0.091964021  0.091929045  0.091948846


 FORCES acting on ions
    electron-ion (+dipol)            ewald-force                    non-local-force                 convergence-correction
 -----------------------------------------------------------------------------------------------
   0.627E+01 -.161E+01 -.230E+01   -.577E+01 0.139E+01 0.202E+01   -.135E+01 0.316E+00 0.537E+00   -.113E-03 0.208E-03 -.392E-03
   0.273E+01 0.132E+01 0.305E+01   -.251E+01 -.128E+01 -.295E+01   -.416E+00 0.199E+00 -.256E+00   -.763E-04 0.216E-03 -.245E-03
   0.401E+01 0.630E+00 0.196E+00   -.373E+01 -.958E+00 -.238E-02   -.744E+00 0.702E+00 0.390E-01   0.467E-03 0.171E-03 -.883E-03
   0.220E+01 0.134E+01 0.118E+01   -.239E+01 -.129E+01 -.104E+01   0.264E+00 0.471E+00 0.527E+00   -.588E-03 0.558E-03 -.496E-04
   0.191E+01 0.255E+01 -.368E+01   -.213E+01 -.250E+01 0.314E+01   0.355E+00 -.498E+00 0.637E+00   0.377E-04 -.197E-03 -.724E-03
   0.550E+00 -.332E+01 0.117E+00   -.622E+00 0.298E+01 -.173E+00   0.171E+00 0.324E+00 -.465E-01   -.188E-03 -.474E-03 -.594E-03
   0.396E+01 0.112E+01 -.255E+01   -.354E+01 -.126E+01 0.237E+01   -.654E+00 0.156E+00 -.579E-01   0.596E-03 -.207E-03 -.131E-03
   0.245E+01 0.516E+01 0.371E+01   -.226E+01 -.483E+01 -.357E+01   -.560E-02 -.945E+00 -.866E+00   -.852E-03 -.523E-04 -.789E-03
   0.193E+01 0.104E+01 0.743E+00   -.165E+01 -.828E+00 -.679E+00   -.556E+00 -.289E+00 -.385E+00   -.658E-03 -.791E-03 0.138E-03
   0.228E+00 0.298E+01 -.126E+01   -.395E+00 -.281E+01 0.122E+01   -.124E+00 -.193E+00 0.369E+00   0.112E-03 -.364E-03 0.422E-03
   -.199E+01 0.163E+00 0.121E+01   0.179E+01 -.244E+00 -.122E+01   0.502E+00 0.183E+00 -.389E+00   0.961E-04 -.233E-03 0.568E-03
   -.123E+01 0.671E+00 -.328E+01   0.898E+00 -.957E+00 0.293E+01   0.733E+00 0.405E+00 0.333E+00   0.429E-03 0.506E-03 0.451E-03
   -.340E+01 0.181E+01 -.110E+01   0.303E+01 -.187E+01 0.113E+01   0.991E+00 -.378E-01 0.362E+00   0.117E-03 0.126E-03 0.703E-03
   0.177E+01 0.274E+01 -.110E+01   -.136E+01 -.243E+01 0.947E+00   -.173E+00 -.656E+00 -.632E-01   0.164E-04 -.135E-03 0.803E-03
   -.132E+01 0.238E+01 0.708E+01   0.126E+01 -.227E+01 -.672E+01   -.376E+00 -.206E+00 -.896E+00   -.602E-05 -.390E-03 0.359E-03
   0.777E+00 0.672E+00 0.152E+00   -.621E+00 -.737E+00 -.829E-01   -.340E+00 -.172E-01 -.163E+00   -.169E-03 0.232E-04 -.419E-04
   0.562E+00 0.802E+00 0.171E+01   -.586E+00 -.657E+00 -.136E+01   -.236E+00 -.519E-01 -.860E+00   -.951E-04 0.435E-03 -.708E-03
   -.680E+00 0.174E-01 -.822E+00   0.570E+00 0.151E-01 0.586E+00   0.546E+00 -.121E+00 0.412E+00   -.250E-03 0.235E-03 -.482E-04
   -.121E+01 -.188E+01 -.414E+00   0.978E+00 0.189E+01 0.511E+00   0.153E+00 0.160E-01 0.164E+00   -.678E-03 -.260E-03 -.959E-03
   0.236E+01 -.211E+01 -.382E+00   -.234E+01 0.237E+01 0.295E+00   -.777E-01 -.565E+00 0.143E+00   0.229E-04 -.312E-03 -.511E-03
   0.871E+00 -.360E+01 -.178E+01   -.894E+00 0.330E+01 0.166E+01   0.585E-01 0.797E+00 0.231E+00   -.463E-03 0.623E-04 -.491E-03
   0.104E+01 0.378E+01 0.390E+01   -.798E+00 -.370E+01 -.329E+01   -.688E+00 0.208E+00 -.933E+00   0.601E-03 0.384E-03 -.611E-03
   -.459E+01 -.388E+01 0.115E+01   0.422E+01 0.356E+01 -.998E+00   0.959E+00 0.581E+00 -.327E+00   0.603E-04 0.791E-03 -.105E-03
   0.170E+01 -.288E+01 0.888E+00   -.155E+01 0.262E+01 -.919E+00   -.307E+00 0.200E+00 -.223E+00   -.451E-03 -.203E-03 0.441E-03
   0.349E+01 -.547E+00 0.979E+00   -.322E+01 0.438E+00 -.906E+00   -.102E+01 0.115E+00 0.642E-01   -.844E-03 -.198E-03 0.542E-03
   -.210E+01 -.205E+01 -.608E-01   0.198E+01 0.225E+01 0.621E-01   0.469E+00 0.406E-01 -.650E-01   -.156E-03 0.406E-03 0.888E-04
   -.114E+00 -.456E-01 -.276E+01   0.250E+00 0.302E+00 0.269E+01   -.192E+00 -.371E+00 0.406E+00   -.613E-03 0.348E-04 0.695E-03
   -.197E+01 -.492E+01 -.334E+00   0.133E+01 0.449E+01 0.309E+00   0.112E+01 0.717E+00 0.121E-01   0.269E-03 0.454E-03 -.146E-03
   0.804E+00 -.370E+01 -.242E+01   -.643E+00 0.355E+01 0.229E+01   -.409E-01 0.540E+00 0.514E+00   -.707E-03 0.143E-03 0.120E-02
   -.720E+00 -.340E+01 -.710E+00   0.565E+00 0.309E+01 0.852E+00   0.172E+00 0.474E+00 0.126E-01   0.190E-03 0.349E-03 0.488E-03
   -.241E+01 -.244E+00 -.454E+01   0.221E+01 0.629E+00 0.384E+01   0.219E+00 -.110E+01 0.125E+01   0.299E-03 -.217E-03 0.315E-03
   0.131E+01 0.127E+01 0.422E+01   -.117E+01 -.687E+00 -.360E+01   -.128E+00 -.794E+00 -.136E+01   -.196E-03 0.107E-03 -.209E-03
   -.234E+01 0.304E+01 0.294E+01   0.232E+01 -.282E+01 -.295E+01   0.384E+00 -.914E+00 -.282E+00   0.582E-04 -.803E-04 0.107E-04
   -.305E+01 0.700E+01 0.767E-01   0.280E+01 -.618E+01 -.231E+00   0.303E+00 -.121E+01 0.101E+00   0.539E-05 -.120E-03 -.159E-03
   -.697E+01 0.172E+01 0.423E+01   0.658E+01 -.165E+01 -.361E+01   0.840E+00 -.160E+00 -.121E+01   -.159E-03 -.162E-03 -.160E-03
   -.248E+01 -.288E+01 -.182E+01   0.227E+01 0.240E+01 0.160E+01   0.521E+00 0.968E+00 0.878E+00   0.528E-03 -.117E-03 -.364E-03
   -.894E+01 0.149E+01 0.228E+01   0.843E+01 -.156E+01 -.212E+01   0.118E+01 0.242E-01 -.372E+00   -.187E-03 -.303E-03 -.289E-03
   0.178E+01 0.122E+00 -.254E+01   -.170E+01 -.291E+00 0.237E+01   -.533E-01 -.299E+00 0.640E+00   -.224E-03 -.404E-04 0.214E-03
   -.229E+01 0.122E+01 0.617E+00   0.194E+01 -.117E+01 -.730E+00   0.333E+00 -.229E+00 -.167E+00   -.824E-03 0.129E-03 -.575E-04
   -.109E+01 0.225E+01 0.389E+01   0.105E+01 -.185E+01 -.338E+01   0.244E+00 -.657E+00 -.105E+01   0.511E-03 -.116E-02 -.640E-03
   0.158E+01 0.335E+01 -.518E+01   -.137E+01 -.304E+01 0.492E+01   -.778E+00 -.904E+00 0.626E+00   0.562E-03 -.298E-03 -.110E-03
   0.150E+00 0.475E+00 -.125E+01   0.200E-01 -.729E+00 0.113E+01   0.302E-02 -.183E+00 0.254E+00   -.866E-04 -.596E-03 -.419E-03
   0.579E+00 0.118E+01 -.210E+01   -.603E+00 -.130E+01 0.208E+01   -.168E+00 0.437E+00 0.111E+00   0.474E-03 0.935E-04 -.550E-03
   -.145E+01 0.234E+01 0.135E+01   0.144E+01 -.222E+01 -.112E+01   -.606E-02 -.376E+00 0.754E-01   0.314E-03 -.688E-04 0.562E-03
   -.337E+01 0.176E+01 -.532E+01   0.321E+01 -.188E+01 0.504E+01   0.696E+00 0.514E+00 0.639E+00   0.103E-02 -.524E-03 0.295E-03
   0.265E+01 -.451E+00 0.493E+00   -.240E+01 0.152E+00 -.314E+00   -.969E+00 0.780E+00 -.575E-01   0.318E-03 0.557E-03 0.268E-03
   0.466E+01 0.323E+01 -.236E+01   -.423E+01 -.324E+01 0.207E+01   -.758E+00 -.456E+00 0.851E+00   -.353E-03 -.547E-03 0.129E-03
   -.393E+00 0.342E+00 0.222E+01   0.566E+00 -.695E+00 -.195E+01   -.145E+00 0.129E+00 -.769E+00   0.199E-03 -.166E-03 0.214E-03
   0.302E+01 -.440E+01 0.131E+01   -.258E+01 0.407E+01 -.124E+01   -.637E+00 0.120E+01 -.522E+00   -.583E-04 0.129E-03 -.346E-03
   0.189E+00 -.476E+01 0.166E+01   -.224E+00 0.454E+01 -.157E+01   -.172E+00 0.821E+00 0.247E-01   0.417E-03 -.635E-04 -.586E-04
   -.354E+00 0.507E-01 -.244E+01   0.351E+00 0.255E+00 0.215E+01   0.411E+00 -.808E+00 -.568E-01   0.358E-03 -.568E-03 -.519E-03
   -.231E+01 0.555E+01 -.193E+01   0.214E+01 -.495E+01 0.155E+01   0.545E-01 -.135E+01 0.641E+00   0.231E-03 0.518E-03 -.678E-03
   0.186E+01 -.224E+01 0.506E+00   -.149E+01 0.219E+01 -.378E+00   -.946E+00 0.292E+00 0.518E+00   -.244E-04 0.239E-03 -.526E-03
   0.265E+01 -.417E+01 0.603E-01   -.231E+01 0.382E+01 -.415E-01   -.380E+00 0.916E+00 0.207E+00   -.665E-03 -.524E-04 -.448E-03
   -.132E+00 -.269E+01 0.254E+00   -.175E+00 0.273E+01 -.409E+00   0.143E+00 0.430E+00 -.115E+00   0.191E-03 -.313E-03 0.274E-03
   -.163E+01 0.424E+01 -.172E+01   0.172E+01 -.373E+01 0.133E+01   0.198E+00 -.115E+01 0.576E+00   0.190E-03 0.513E-03 0.211E-03
   -.378E+00 -.413E+01 0.516E+00   0.323E+00 0.369E+01 -.473E+00   -.583E+00 0.991E+00 0.497E-01   0.510E-03 0.286E-03 0.642E-03
   0.391E+01 -.456E+00 0.138E+01   -.334E+01 0.484E+00 -.113E+01   -.442E+00 -.871E-01 -.218E+00   -.261E-03 0.482E-03 0.880E-03
   -.183E+01 0.178E+01 0.119E+01   0.175E+01 -.152E+01 -.960E+00   0.325E+00 -.219E+00 -.124E+00   0.574E-03 -.121E-03 0.182E-03
   -.266E+01 -.730E+01 -.543E+00   0.228E+01 0.685E+01 0.608E+00   0.458E+00 0.150E+01 0.536E+00   0.551E-03 0.482E-03 0.494E-03
   -.293E+01 -.172E+01 -.535E-01   0.272E+01 0.172E+01 0.745E-01   0.717E+00 -.180E-01 -.751E+00   0.429E-03 0.474E-03 -.107E-03
   0.111E+01 -.185E+01 0.981E+00   -.135E+01 0.160E+01 -.809E+00   0.284E-01 0.566E+00 0.137E+00   -.381E-03 0.361E-03 0.585E-03
   -.160E+00 0.119E+01 -.107E+00   0.407E-01 -.859E+00 -.138E+00   0.542E-01 -.802E+00 0.300E+00   0.732E-04 -.384E-03 0.668E-03
   0.138E+01 -.159E+01 0.589E+00   -.106E+01 0.161E+01 -.689E+00   -.112E+00 -.318E+00 -.549E+00   -.380E-03 0.351E-04 -.310E-05
 -----------------------------------------------------------------------------------------------
   -.487E-01 -.222E-01 -.314E-01   0.159E-12 -.143E-12 0.853E-13   0.282E-01 0.272E-01 0.446E-01   0.131E-03 -.207E-03 -.230E-03
 
 
 POSITION                                       TOTAL-FORCE (eV/Angst)
 -----------------------------------------------------------------------------------
      0.09918      0.07172      0.03212        -0.850580      0.103680      0.260292
      2.80086      2.73871      0.04123        -0.195306      0.236383     -0.149049
      2.82855     10.86503      2.73893        -0.464445      0.375026      0.231741
      0.00007      2.75553      2.66303         0.077382      0.516091      0.661802
      1.44312      1.41832      1.40451         0.133605     -0.446016      0.088099
      4.07404      4.11469      1.41953         0.098978     -0.008560     -0.103317
      4.12535      1.39615      4.12055        -0.231668      0.022178     -0.243196
      1.38186      4.12653      4.10985         0.183676     -0.609054     -0.722824
      0.05975      0.06460      5.51887        -0.276405     -0.083311     -0.320119
      2.77052      2.77254      5.44320        -0.290229     -0.021210      0.325092
      2.74939      0.05689      8.26024         0.301760      0.101849     -0.397323
      0.05648      2.78275      8.22550         0.400667      0.119199     -0.020775
      1.38134      1.43524      6.83999         0.617153     -0.100491      0.388374
      4.06740      4.16460      6.84703         0.233554     -0.339580     -0.212817
      4.19100      1.45424      9.57246        -0.433397     -0.091494     -0.534699
      1.44277      4.14734      9.58681        -0.184154     -0.082240     -0.094035
      0.08447      5.48357      0.09070        -0.260214      0.093602     -0.515107
      2.70237      8.18918      0.05264         0.436016     -0.088711      0.175320
      2.76722      5.47726      2.77105        -0.081665      0.026268      0.259590
      0.03828      8.24452      2.79710        -0.062111     -0.301973      0.055695
      1.39289      6.81965      1.45461         0.035957      0.498930      0.107259
      4.15783      9.49669      1.39819        -0.443854      0.286664     -0.331154
      4.11555      6.82726      4.13431         0.588984      0.254587     -0.171675
      1.42502      9.59851      4.15147        -0.150878     -0.062661     -0.254690
      0.12009      5.46958      5.46694        -0.747134      0.005187      0.137603
      2.72791      8.17910      5.48023         0.352450      0.239350     -0.063769
      2.75435      5.53291      8.19228        -0.056847     -0.114484      0.336104
      0.01544      8.19073      8.17443         0.481966      0.285407     -0.012626
      1.38693      6.82458      6.82030         0.119161      0.384055      0.389841
      4.10359      9.57786      6.80575         0.017899      0.163042      0.154904
      4.10064      6.91193      9.53978         0.017548     -0.717067      0.548906
      1.37313      9.57043      9.60382         0.008233     -0.214587     -0.740865
      5.43935      0.12844      0.13260         0.364007     -0.696949     -0.293220
      8.19340      2.79343      0.05793         0.048033     -0.394150     -0.053393
      8.20267      0.07152      2.81969         0.445491     -0.090184     -0.598791
      5.41480      2.74350      2.72564         0.312530      0.489506      0.656436
      6.82210      1.43328      1.46118         0.666752     -0.044541     -0.207290
      9.49323      4.22613      1.39060         0.023245     -0.468294      0.462846
      9.57484      1.45323      4.15928        -0.016971     -0.172470     -0.279506
      6.77278      4.12327      4.14030         0.199460     -0.252354     -0.532899
      5.50791      0.10888      5.45138        -0.568773     -0.588551      0.359711
      8.17761      2.81812      5.47724         0.173403     -0.437830      0.137683
      8.20840     10.85419      8.20082        -0.190964      0.320827      0.087667
      5.49822      2.82228      8.14700        -0.011813     -0.257246      0.312733
      6.83991      1.38225      6.82982         0.534604      0.389889      0.359194
      9.65253      4.08374      6.80649        -0.720877      0.482724      0.121965
      9.56425      1.44219      9.51574        -0.324084     -0.460741      0.558156
      6.83145      4.14147      9.59270         0.029307     -0.223492     -0.500661
      5.45626      5.41667      0.07410        -0.201008      0.860828     -0.450519
      8.23083      8.15461     10.85132        -0.206559      0.594777      0.113641
      8.13506      5.55231      2.84755         0.408932     -0.503340     -0.350690
      5.54165      8.21448      2.71687        -0.111459     -0.752768      0.264340
      6.90292      6.80512      1.31540        -0.575376      0.240028      0.645954
      9.55137      9.53203      1.36923        -0.043674      0.573663      0.224839
      9.57431      6.82594      4.18838        -0.163428      0.472997     -0.269835
      6.80067      9.62657      4.09722         0.286840     -0.632850      0.187661
      5.50378      5.45171      5.51545        -0.637088      0.554067      0.093398
      8.10750      8.17792      5.47856         0.128890     -0.058555      0.031254
      8.23735      5.43027      8.19826         0.255495      0.046099      0.101388
      5.45444      8.17681      8.16084         0.072284      1.059846      0.601231
      6.81252      6.79537      6.93599         0.511909     -0.015803     -0.730646
      9.54652      9.50430      6.77594        -0.208203      0.309143      0.309040
      9.60329      6.83359      9.52950        -0.064976     -0.468695      0.055474
      6.76890      9.59906      9.64789         0.207970     -0.305641     -0.649745
 -----------------------------------------------------------------------------------
    total drift:                               -0.020424      0.004804      0.012962


--------------------------------------------------------------------------------------------------------



  FREE ENERGIE OF THE ION-ELECTRON SYSTEM (eV)
  ---------------------------------------------------
  free  energy   TOTEN  =      -345.35239590 eV

  energy  without entropy=     -345.35239590  energy(sigma->0) =     -345.35239590
 


--------------------------------------------------------------------------------------------------------


    POTLOK:  cpu time      0.1423: real time      0.1426


--------------------------------------------------------------------------------------------------------


 writing wavefunctions
     LOOP+:  cpu time    403.8425: real time    406.4891
    4ORBIT:  cpu time      0.0000: real time      0.0000

 total amount of memory used by VASP MPI-rank0    37846. kBytes
=======================================================================

   base      :      30000. kBytes
   nonlr-proj:       1206. kBytes
   fftplans  :        841. kBytes
   grid      :       1174. kBytes
   one-center:          9. kBytes
   wavefun   :       4616. kBytes
 
  
  
 General timing and accounting informations for this job:
 ========================================================
  
                  Total CPU time used (sec):      443.460
                            User time (sec):      443.260
                          System time (sec):        0.200
                         Elapsed time (sec):      449.438
  
                   Maximum memory used (kb):      213460.
                   Average memory used (kb):          N/A
  
                          Minor page faults:        19440
                          Major page faults:         8144
                 Voluntary context switches:         5847
