 vasp.6.4.2 20Jul23 (build Jun 27 2024 19:57:08) complex                        
  
 executed on                 T2A5 date 2026.01.13  18:43:58
 running   28 mpi-ranks, with    1 threads/rank, on    1 nodes
 distrk:  each k-point on   28 cores,    1 groups
 distr:  one band on NCORE=  28 cores,    1 groups


--------------------------------------------------------------------------------------------------------


 INCAR:
   ISTART = 1
   ICHARG = 1
   LWAVE = .T.
   LCHARG = .T.
   ENCUT = 250
   PREC = Normal
   ADDGRID = .F.
   EDIFF = 1E-4
   LREAL = Auto
   ALGO = Fast
   NSW = 0
   IBRION = -1
   ISMEAR = 0
   SIGMA = 0.1
   NPAR = 1
   KPAR = 1
   SYMPREC = 1E-4

 POTCAR:    PAW_PBE Si 05Jan2001                  
 POTCAR:    PAW_PBE Si 05Jan2001                  
   SHA256 =  79d9987ad8750f624c4d6acb2a16d13abf6a777132adc04dc6c8399be72b42bb Si/POTCAR             
   COPYR  = (c) Copyright 05Jan2001 Georg Kresse                                                    
   COPYR  = This file is part of the software VASP. Any use, copying, and all other rights are regul
   COPYR  = If you do not have a valid VASP license, you may not use, copy or distribute this file. 
   VRHFIN =Si: s2p2                                                                                 
   LEXCH  = PE                                                                                      
   EATOM  =   103.0669 eV,    7.5752 Ry                                                             
                                                                                                    
   TITEL  = PAW_PBE Si 05Jan2001                                                                    
   LULTRA =        F    use ultrasoft PP ?                                                          
   IUNSCR =        1    unscreen: 0-lin 1-nonlin 2-no                                               
   RPACOR =    1.500    partial core radius                                                         
   POMASS =   28.085; ZVAL   =    4.000    mass and valenz                                          
   RCORE  =    1.900    outmost cutoff radius                                                       
   RWIGS  =    2.480; RWIGS  =    1.312    wigner-seitz radius (au A)                               
   ENMAX  =  245.345; ENMIN  =  184.009 eV                                                          
   ICORE  =        2    local potential                                                             
   LCOR   =        T    correct aug charges                                                         
   LPAW   =        T    paw PP                                                                      
   EAUG   =  322.069                                                                                
   DEXC   =    0.000                                                                                
   RMAX   =    1.950    core radius for proj-oper                                                   
   RAUG   =    1.300    factor for augmentation sphere                                              
   RDEP   =    1.993    radius for radial grids                                                     
   RDEPT  =    1.837    core radius for aug-charge                                                  
                                                                                                    
   Atomic configuration                                                                             
    6 entries                                                                                       
     n  l   j            E        occ.                                                              
     1  0  0.50     -1785.8828   2.0000                                                             
     2  0  0.50      -139.4969   2.0000                                                             
     2  1  1.50       -95.5546   6.0000                                                             
     3  0  0.50       -10.8127   2.0000                                                             
     3  1  0.50        -4.0811   2.0000                                                             
     3  2  1.50        -4.0817   0.0000                                                             
   Description                                                                                      
     l       E           TYP  RCUT    TYP  RCUT                                                     
     0    -10.8127223     23  1.900                                                                 
     0     -7.6451159     23  1.900                                                                 
     1     -4.0811372     23  1.900                                                                 
     1      2.4879257     23  1.900                                                                 
     2     -4.0817478      7  1.900                                                                 
  local pseudopotential read in
  partial core-charges read in
  partial kinetic energy density read in
  atomic valenz-charges read in
  non local Contribution for L=           0  read in
    real space projection operators read in
  non local Contribution for L=           0  read in
    real space projection operators read in
  non local Contribution for L=           1  read in
    real space projection operators read in
  non local Contribution for L=           1  read in
    real space projection operators read in
    PAW grid and wavefunctions read in
 
   number of l-projection  operators is LMAX  =           4
   number of lm-projection operators is LMMAX =           8
 
 Optimization of the real space projectors (new method)

 maximal supplied QI-value         = 19.84
 optimisation between [QCUT,QGAM] = [  7.94, 16.07] = [ 17.64, 72.34] Ry 
 Optimized for a Real-space Cutoff    1.55 Angstroem

   l    n(q)    QCUT    max X(q) W(low)/X(q) W(high)/X(q)  e(spline) 
   0      7     7.937   159.560    0.97E-04    0.31E-03    0.13E-06
   0      7     7.937   115.863    0.95E-04    0.31E-03    0.13E-06
   1      7     7.937    88.339    0.40E-03    0.66E-03    0.12E-06
   1      7     7.937    48.592    0.39E-03    0.64E-03    0.12E-06
  PAW_PBE Si 05Jan2001                  :
 energy of atom  1       EATOM= -103.0669
 kinetic energy error for atom=    0.0052 (will be added to EATOM!!)
 
 
 POSCAR: Si
  positions in cartesian coordinates
  No initial velocities read in
 exchange correlation table for  LEXCH =        8
   RHO(1)=    0.500       N(1)  =     2000
   RHO(2)=  100.500       N(2)  =     4000
 


--------------------------------------------------------------------------------------------------------


 ion  position               nearest neighbor table
   1  0.999  1.000  0.999-  47 2.36  54 2.37   5 2.38  32 2.38
   2  0.251  0.251  1.000-   6 2.37  16 2.37  15 2.37   5 2.38
   3  0.250  0.000  0.250-   5 2.36   7 2.37  22 2.37  24 2.37
   4  0.001  0.250  0.251-   8 2.37  38 2.37  39 2.38   5 2.39
   5  0.125  0.124  0.125-   3 2.36   1 2.38   2 2.38   4 2.39
   6  0.375  0.374  0.125-   2 2.37  36 2.37  19 2.37  49 2.38
   7  0.375  0.125  0.375-   3 2.37  41 2.37  36 2.38  10 2.38
   8  0.125  0.375  0.374-  19 2.37   4 2.37  10 2.38  25 2.39
   9  0.000  0.999  0.500-  24 2.35  62 2.37  39 2.37  13 2.39
  10  0.249  0.250  0.501-  13 2.37  14 2.38   8 2.38   7 2.38
  11  0.250  1.000  0.750-  15 2.37  32 2.38  13 2.38  30 2.38
  12  0.999  0.250  0.750-  16 2.37  13 2.37  46 2.38  47 2.38
  13  0.124  0.125  0.626-  12 2.37  10 2.37  11 2.38   9 2.39
  14  0.376  0.375  0.625-  44 2.36  10 2.38  57 2.38  27 2.38
  15  0.375  0.125  0.875-  44 2.36  11 2.37   2 2.37  33 2.38
  16  0.124  0.374  0.875-  12 2.37   2 2.37  17 2.38  27 2.38
  17  1.000  0.500  0.999-  63 2.37  16 2.38  21 2.39  38 2.39
  18  0.250  0.750  0.000-  21 2.36  22 2.37  31 2.37  32 2.38
  19  0.250  0.499  0.249-   8 2.37  21 2.37   6 2.37  23 2.39
  20  0.001  0.749  0.250-  55 2.37  21 2.37  24 2.38  54 2.39
  21  0.126  0.625  0.125-  18 2.36  19 2.37  20 2.37  17 2.39
  22  0.374  0.876  0.125-  33 2.37  18 2.37   3 2.37  52 2.39
  23  0.376  0.625  0.375-  52 2.37  57 2.37  26 2.38  19 2.39
  24  0.125  0.876  0.376-   9 2.35   3 2.37  26 2.38  20 2.38
  25  0.999  0.500  0.501-  46 2.37  55 2.38  29 2.38   8 2.39
  26  0.250  0.750  0.500-  24 2.38  23 2.38  29 2.38  30 2.38
  27  0.249  0.500  0.750-  29 2.37  31 2.38  16 2.38  14 2.38
  28  0.001  0.749  0.749-  29 2.35  32 2.37  62 2.37  63 2.38
  29  0.125  0.626  0.626-  28 2.35  27 2.37  26 2.38  25 2.38
  30  0.376  0.876  0.625-  41 2.36  11 2.38  60 2.38  26 2.38
  31  0.375  0.625  0.876-  49 2.36  18 2.37  27 2.38  60 2.38
  32  0.125  0.874  0.874-  28 2.37  11 2.38  18 2.38   1 2.38
  33  0.500  0.999  1.000-  64 2.37  22 2.37  37 2.38  15 2.38
  34  0.749  0.249  0.000-  47 2.36  37 2.37  48 2.38  38 2.38
  35  0.750  0.999  0.250-  54 2.35  56 2.37  39 2.37  37 2.38
  36  0.500  0.251  0.251-  40 2.36   6 2.37   7 2.38  37 2.38
  37  0.625  0.125  0.125-  34 2.37  35 2.38  33 2.38  36 2.38
  38  0.875  0.374  0.126-  51 2.37   4 2.37  34 2.38  17 2.39
  39  0.875  0.124  0.375-  42 2.37   9 2.37  35 2.37   4 2.38
  40  0.626  0.375  0.374-  36 2.36  51 2.37  42 2.38  57 2.39
  41  0.500  0.999  0.499-  30 2.36  56 2.37   7 2.37  45 2.39
  42  0.751  0.250  0.500-  39 2.37  45 2.38  46 2.38  40 2.38
  43  0.750  0.001  0.750-  45 2.37  47 2.37  62 2.38  64 2.38
  44  0.499  0.249  0.750-  14 2.36  15 2.36  45 2.37  48 2.38
  45  0.625  0.125  0.625-  43 2.37  44 2.37  42 2.38  41 2.39
  46  0.874  0.376  0.626-  59 2.36  25 2.37  42 2.38  12 2.38
  47  0.874  0.125  0.876-   1 2.36  34 2.36  43 2.37  12 2.38
  48  0.625  0.374  0.874-  34 2.38  44 2.38  59 2.38  49 2.39
  49  0.499  0.501  0.999-  31 2.36   6 2.38  53 2.39  48 2.39
  50  0.751  0.750  1.000-  63 2.36  64 2.38  54 2.38  53 2.38
  51  0.750  0.499  0.249-  38 2.37  40 2.37  53 2.38  55 2.38
  52  0.500  0.750  0.250-  53 2.37  23 2.37  56 2.39  22 2.39
  53  0.625  0.626  0.126-  52 2.37  51 2.38  50 2.38  49 2.39
  54  0.875  0.876  0.126-  35 2.35   1 2.37  50 2.38  20 2.39
  55  0.875  0.625  0.375-  20 2.37  58 2.37  25 2.38  51 2.38
  56  0.626  0.875  0.375-  58 2.37  35 2.37  41 2.37  52 2.39
  57  0.500  0.501  0.500-  61 2.37  23 2.37  14 2.38  40 2.39
  58  0.750  0.750  0.500-  61 2.36  56 2.37  55 2.37  62 2.38
  59  0.751  0.501  0.750-  46 2.36  63 2.36  48 2.38  61 2.38
  60  0.500  0.751  0.751-  64 2.36  30 2.38  31 2.38  61 2.39
  61  0.626  0.626  0.624-  58 2.36  57 2.37  59 2.38  60 2.39
  62  0.875  0.875  0.626-  28 2.37   9 2.37  43 2.38  58 2.38
  63  0.874  0.625  0.875-  50 2.36  59 2.36  17 2.37  28 2.38
  64  0.625  0.875  0.875-  60 2.36  33 2.37  50 2.38  43 2.38
 
  LATTYP: Found a simple cubic cell.
 ALAT       =    10.9685218700
  
  Lattice vectors:
  
 A1 = (  10.9685218700,   0.0000000000,   0.0000000000)
 A2 = (   0.0000010800,  10.9685245400,   0.0000000000)
 A3 = (  -0.0000045900,   0.0000054200,  10.9685192900)


Analysis of symmetry for initial positions (statically):
=====================================================================
 Subroutine PRICEL returns:
 Original cell was already a primitive cell.
 

 Routine SETGRP: Setting up the symmetry group for a 
 simple cubic supercell.


 Subroutine GETGRP returns: Found  1 space group operations
 (whereof  1 operations were pure point group operations)
 out of a pool of 48 trial point group operations.


The static configuration has the point symmetry C_1 .


Analysis of symmetry for dynamics (positions and initial velocities):
=====================================================================
 Subroutine PRICEL returns:
 Original cell was already a primitive cell.
 

 Routine SETGRP: Setting up the symmetry group for a 
 simple cubic supercell.


 Subroutine GETGRP returns: Found  1 space group operations
 (whereof  1 operations were pure point group operations)
 out of a pool of 48 trial point group operations.


The dynamic configuration has the point symmetry C_1 .


 Subroutine INISYM returns: Found  1 space group operations
 (whereof  1 operations are pure point group operations),
 and found     1 'primitive' translations


----------------------------------------------------------------------------------------

                                     Primitive cell                                     

  volume of cell :    1319.6061

  direct lattice vectors                    reciprocal lattice vectors
    10.968521870  0.000000000  0.000000000     0.091169987 -0.000000009  0.000000038
     0.000001080 10.968524540  0.000000000     0.000000000  0.091169965 -0.000000045
    -0.000004590  0.000005420 10.968519290     0.000000000  0.000000000  0.091170009

  length of vectors
    10.968521870 10.968524540 10.968519290     0.091169987  0.091169965  0.091170009

  position of ions in fractional coordinates (direct lattice)
     0.999147893  0.999760564  0.999274996
     0.250590648  0.250701617  0.999835397
     0.249627412  0.000408330  0.250186854
     0.000564904  0.250198157  0.250653763
     0.125472087  0.124077300  0.124580648
     0.375353088  0.374209912  0.125213010
     0.374918339  0.124744240  0.374867613
     0.125491146  0.375363482  0.374338691
     0.000055269  0.999120071  0.499521222
     0.249474712  0.249827196  0.500832108
     0.249885599  0.999927794  0.749979528
     0.999339692  0.250148395  0.750377370
     0.124296363  0.125466333  0.625716343
     0.375675820  0.374548643  0.625358132
     0.374861868  0.125109483  0.874706106
     0.124480513  0.374176857  0.875103613
     0.999574254  0.500469889  0.999373301
     0.249899326  0.750008957  0.000400458
     0.250100671  0.499401239  0.249461265
     0.000566568  0.749342372  0.250316667
     0.125890475  0.625327241  0.125025424
     0.374197621  0.875887275  0.124663248
     0.375929173  0.625471871  0.374509179
     0.124774508  0.875851891  0.375787763
     0.999291653  0.499984058  0.500500602
     0.250083781  0.749992002  0.499888634
     0.249245002  0.500337485  0.749715681
     0.000779725  0.749314868  0.749315817
     0.124502672  0.625647365  0.625723908
     0.375961212  0.875794882  0.624770781
     0.374539585  0.624640800  0.875630123
     0.124846331  0.874070483  0.874297773
     0.500008357  0.999174407  0.999787586
     0.749452104  0.249138845  0.000105087
     0.750280391  0.999279261  0.249625120
     0.500272498  0.250736099  0.250876134
     0.624618932  0.124872454  0.125245131
     0.874679780  0.374123019  0.125510096
     0.874732052  0.124311188  0.375098509
     0.625696949  0.374613878  0.374302756
     0.499608338  0.999139723  0.499223869
     0.750931569  0.249876767  0.499820613
     0.749582673  0.000635754  0.749685280
     0.499151156  0.249360912  0.749886364
     0.624940993  0.125456433  0.624609416
     0.874393769  0.375936018  0.625531114
     0.874219070  0.124619656  0.875945439
     0.625468341  0.374437529  0.874094531
     0.499488002  0.500507288  0.999436941
     0.750885384  0.750129552  0.999546351
     0.750389499  0.499479231  0.249489483
     0.500094400  0.749984666  0.249600304
     0.625255479  0.625577031  0.125635991
     0.874545623  0.875751360  0.125569680
     0.874811580  0.625179376  0.374964949
     0.625825756  0.875324106  0.375220280
     0.500387312  0.500759725  0.500343585
     0.749959227  0.750313346  0.499950139
     0.750854423  0.500620644  0.749929267
     0.500263808  0.750762254  0.750998058
     0.625628864  0.625805778  0.624298082
     0.875348710  0.875181879  0.625768760
     0.874452844  0.625150335  0.875050552
     0.624580953  0.874649403  0.875158796

  ion indices of the primitive-cell ions
   primitive index   ion index
                 1           1
                 2           2
                 3           3
                 4           4
                 5           5
                 6           6
                 7           7
                 8           8
                 9           9
                10          10
                11          11
                12          12
                13          13
                14          14
                15          15
                16          16
                17          17
                18          18
                19          19
                20          20
                21          21
                22          22
                23          23
                24          24
                25          25
                26          26
                27          27
                28          28
                29          29
                30          30
                31          31
                32          32
                33          33
                34          34
                35          35
                36          36
                37          37
                38          38
                39          39
                40          40
                41          41
                42          42
                43          43
                44          44
                45          45
                46          46
                47          47
                48          48
                49          49
                50          50
                51          51
                52          52
                53          53
                54          54
                55          55
                56          56
                57          57
                58          58
                59          59
                60          60
                61          61
                62          62
                63          63
                64          64

----------------------------------------------------------------------------------------

 
 
 KPOINTS: K-Points                                

Automatic generation of k-mesh.
 Grid dimensions read from file:
 generate k-points for:    2    2    2

 Generating k-lattice:

  Cartesian coordinates                     Fractional coordinates (reciprocal lattice)
     0.045584994 -0.000000004  0.000000019     0.500000000  0.000000000 -0.000000000
     0.000000000  0.045584983 -0.000000023     0.000000000  0.500000000 -0.000000000
     0.000000000  0.000000000  0.045585004     0.000000000  0.000000000  0.500000000

  Length of vectors
     0.045584994  0.045584983  0.045585004

  Shift w.r.t. Gamma in fractional coordinates (k-lattice)
     0.500000000  0.500000000  0.500000000

 
 Subroutine IBZKPT returns following result:
 ===========================================
 
 Found      4 irreducible k-points:
 
 Following reciprocal coordinates:
            Coordinates               Weight
  0.250000  0.250000  0.250000      2.000000
 -0.250000  0.250000  0.250000      2.000000
 -0.250000 -0.250000  0.250000      2.000000
  0.250000 -0.250000  0.250000      2.000000
 
 Following cartesian coordinates:
            Coordinates               Weight
  0.022792  0.022792  0.022793      2.000000
 -0.022792  0.022792  0.022792      2.000000
 -0.022792 -0.022792  0.022793      2.000000
  0.022792 -0.022792  0.022793      2.000000
 


--------------------------------------------------------------------------------------------------------




 Dimension of arrays:
   k-points           NKPTS =      4   k-points in BZ     NKDIM =      4   number of bands    NBANDS=    161
   number of dos      NEDOS =    301   number of ions     NIONS =     64
   non local maximal  LDIM  =      4   non local SUM 2l+1 LMDIM =      8
   total plane-waves  NPLWV =  74088
   max r-space proj   IRMAX =    928   max aug-charges    IRDMAX=   2076
   dimension x,y,z NGX =    42 NGY =   42 NGZ =   42
   dimension x,y,z NGXF=    84 NGYF=   84 NGZF=   84
   support grid    NGXF=    84 NGYF=   84 NGZF=   84
   ions per type =              64
   NGX,Y,Z   is equivalent  to a cutoff of   6.37,  6.37,  6.37 a.u.
   NGXF,Y,Z  is equivalent  to a cutoff of  12.73, 12.73, 12.73 a.u.

 SYSTEM =  unknown system                          
 POSCAR =  Si                                      

 Startparameter for this run:
   NWRITE =      2    write-flag & timer
   PREC   = normal    normal or accurate (medium, high low for compatibility)
   ISTART =      1    job   : 0-new  1-cont  2-samecut
   ICHARG =      1    charge: 1-file 2-atom 10-const
   ISPIN  =      1    spin polarized calculation?
   LNONCOLLINEAR =      F non collinear calculations
   LSORBIT =      F    spin-orbit coupling
   INIWAV =      1    electr: 0-lowe 1-rand  2-diag
   LASPH  =      F    aspherical Exc in radial PAW
 Electronic Relaxation 1
   ENCUT  =  250.0 eV  18.37 Ry    4.29 a.u.  14.14 14.14 14.14*2*pi/ulx,y,z
   ENINI  =  250.0     initial cutoff
   ENAUG  =  322.1 eV  augmentation charge cutoff
   NELM   =     60;   NELMIN=  2; NELMDL=  0     # of ELM steps 
   EDIFF  = 0.1E-03   stopping-criterion for ELM
   LREAL  =      T    real-space projection
   NLSPLINE    = F    spline interpolate recip. space projectors
   LCOMPAT=      F    compatible to vasp.4.4
   GGA_COMPAT  = T    GGA compatible to vasp.4.4-vasp.4.6
   LMAXPAW     = -100 max onsite density
   LMAXMIX     =    2 max onsite mixed and CHGCAR
   VOSKOWN=      0    Vosko Wilk Nusair interpolation
   ROPT   =   -0.00050
 Ionic relaxation
   EDIFFG = 0.1E-02   stopping-criterion for IOM
   NSW    =      0    number of steps for IOM
   NBLOCK =      1;   KBLOCK =      1    inner block; outer block 
   IBRION =     -1    ionic relax: 0-MD 1-quasi-New 2-CG
   NFREE  =      0    steps in history (QN), initial steepest desc. (CG)
   ISIF   =      2    stress and relaxation
   IWAVPR =     10    prediction:  0-non 1-charg 2-wave 3-comb
   ISYM   =      2    0-nonsym 1-usesym 2-fastsym
   LCORR  =      T    Harris-Foulkes like correction to forces

   POTIM  = 0.5000    time-step for ionic-motion
   TEIN   =    0.0    initial temperature
   TEBEG  =    0.0;   TEEND  =   0.0 temperature during run
   SMASS  =  -3.00    Nose mass-parameter (am)
   estimated Nose-frequenzy (Omega)   =  0.10E-29 period in steps = 0.13E+47 mass=  -0.275E-26a.u.
   SCALEE = 1.0000    scale energy and forces
   NPACO  =    256;   APACO  = 10.0  distance and # of slots for P.C.
   PSTRESS=    0.0 pullay stress

  Mass of Ions in am
   POMASS =  28.09
  Ionic Valenz
   ZVAL   =   4.00
  Atomic Wigner-Seitz radii
   RWIGS  =  -1.00
  virtual crystal weights 
   VCA    =   1.00
   NELECT =     256.0000    total number of electrons
   NUPDOWN=      -1.0000    fix difference up-down

 DOS related values:
   EMIN   =  10.00;   EMAX   =-10.00  energy-range for DOS
   EFERMI =   0.00;   METHOD = LEGACY      
   ISMEAR =     0;   SIGMA  =   0.10  broadening in eV -4-tet -1-fermi 0-gaus

 Electronic relaxation 2 (details)
   IALGO  =     68    algorithm
   LDIAG  =      T    sub-space diagonalisation (order eigenvalues)
   LSUBROT=      F    optimize rotation matrix (better conditioning)
   TURBO    =      0    0=normal 1=particle mesh
   IRESTART =      0    0=no restart 2=restart with 2 vectors
   NREBOOT  =      0    no. of reboots
   NMIN     =      0    reboot dimension
   EREF     =   0.00    reference energy to select bands
   IMIX   =      4    mixing-type and parameters
     AMIX     =   0.40;   BMIX     =  1.00
     AMIX_MAG =   1.60;   BMIX_MAG =  1.00
     AMIN     =   0.10
     WC   =   100.;   INIMIX=   1;  MIXPRE=   1;  MAXMIX= -45

 Intra band minimization:
   WEIMIN = 0.0000     energy-eigenvalue tresh-hold
   EBREAK =  0.16E-06  absolut break condition
   DEPER  =   0.30     relativ break condition  

   TIME   =   0.40     timestep for ELM

  volume/ion in A,a.u.               =      20.62       139.14
  Fermi-wavevector in a.u.,A,eV,Ry     =   0.947705  1.790904 12.220013  0.898146
  Thomas-Fermi vector in A             =   2.075824
 
 Write flags
   LWAVE        =      T    write WAVECAR
   LDOWNSAMPLE  =      F    k-point downsampling of WAVECAR
   LCHARG       =      T    write CHGCAR
   LVTOT        =      F    write LOCPOT, total local potential
   LVHAR        =      F    write LOCPOT, Hartree potential only
   LELF         =      F    write electronic localiz. function (ELF)
   LORBIT       =      0    0 simple, 1 ext, 2 COOP (PROOUT), +10 PAW based schemes


 Dipole corrections
   LMONO  =      F    monopole corrections only (constant potential shift)
   LDIPOL =      F    correct potential (dipole corrections)
   IDIPOL =      0    1-x, 2-y, 3-z, 4-all directions 
   EPSILON=  1.0000000 bulk dielectric constant

 Exchange correlation treatment:
   GGA     =    --    GGA type
   LEXCH   =     8    internal setting for exchange type
   LIBXC   =     F    Libxc                    
   VOSKOWN =     0    Vosko Wilk Nusair interpolation
   LHFCALC =     F    Hartree Fock is set to
   LHFONE  =     F    Hartree Fock one center treatment
   AEXX    =    0.0000 exact exchange contribution

 Linear response parameters
   LEPSILON=     F    determine dielectric tensor
   LRPA    =     F    only Hartree local field effects (RPA)
   LNABLA  =     F    use nabla operator in PAW spheres
   LVEL    =     F    velocity operator in full k-point grid
   CSHIFT  =0.1000    complex shift for real part using Kramers Kronig
   OMEGAMAX=  -1.0    maximum frequency
   DEG_THRESHOLD= 0.2000000E-02 threshold for treating states as degnerate
   RTIME   =   -0.100 relaxation time in fs
  (WPLASMAI=    0.000 imaginary part of plasma frequency in eV, 0.658/RTIME)
   DFIELD  = 0.0000000 0.0000000 0.0000000 field for delta impulse in time
 
  Optional k-point grid parameters
   LKPOINTS_OPT  =     F    use optional k-point grid
   KPOINTS_OPT_MODE=     1    mode for optional k-point grid
 
 Orbital magnetization related:
   ORBITALMAG=     F  switch on orbital magnetization
   LCHIMAG   =     F  perturbation theory with respect to B field
   DQ        =  0.001000  dq finite difference perturbation B field
   LLRAUG    =     F  two centre corrections for induced B field
   LBONE     =     F  B-component reconstruction in AE one-centre
   LVGVCALC  =     T  calculate vGv susceptibility
   LVGVAPPL  =     F  apply vGv susceptibility instead of pGv for G=0

 Random number generation:
   RANDOM_GENERATOR = DEFAULT
   PCG_SEED         = not used


--------------------------------------------------------------------------------------------------------


 Static calculation
 charge density and potential will be updated during run
 non-spin polarized calculation
 RMM-DIIS sequential band-by-band and
  variant of blocked Davidson during initial phase
 perform sub-space diagonalisation
    before iterative eigenvector-optimisation
 modified Broyden-mixing scheme, WC =      100.0
 initial mixing is a Kerker type mixing with AMIX =  0.4000 and BMIX =      1.0000
 Hartree-type preconditioning will be used
 using additional bands           33
 real space projection scheme for non local part
 use partial core corrections
 calculate Harris-corrections to forces 
   (improved forces if not selfconsistent)
 use gradient corrections 
 use of overlap-Matrix (Vanderbilt PP)
 Gauss-broadening in eV      SIGMA  =   0.10


--------------------------------------------------------------------------------------------------------


  energy-cutoff  :      250.00
  volume of cell :     1319.61
      direct lattice vectors                 reciprocal lattice vectors
    10.968521870  0.000000000  0.000000000     0.091169987 -0.000000009  0.000000038
     0.000001080 10.968524540  0.000000000     0.000000000  0.091169965 -0.000000045
    -0.000004590  0.000005420 10.968519290     0.000000000  0.000000000  0.091170009

  length of vectors
    10.968521870 10.968524540 10.968519290     0.091169987  0.091169965  0.091170009


 
 old parameters found on file WAVECAR:
  energy-cutoff  :      250.00
  volume of cell :     1319.63
      direct lattice vectors                 reciprocal lattice vectors
    10.968599650  0.000000000  0.000000000     0.091169341  0.000000000  0.000000000
     0.000000000 10.968599650  0.000000000     0.000000000  0.091169341  0.000000000
     0.000000000  0.000000000 10.968599650     0.000000000  0.000000000  0.091169341

  length of vectors

 
 k-points in units of 2pi/SCALE and weight: K-Points                                
   0.02279250  0.02279249  0.02279250       0.250
  -0.02279250  0.02279249  0.02279248       0.250
  -0.02279250 -0.02279249  0.02279250       0.250
   0.02279250 -0.02279249  0.02279252       0.250
 
 k-points in reciprocal lattice and weights: K-Points                                
   0.25000000  0.25000000  0.25000000       0.250
  -0.25000000  0.25000000  0.25000000       0.250
  -0.25000000 -0.25000000  0.25000000       0.250
   0.25000000 -0.25000000  0.25000000       0.250
 
 position of ions in fractional coordinates (direct lattice) 
   0.99914789  0.99976056  0.99927500
   0.25059065  0.25070162  0.99983540
   0.24962741  0.00040833  0.25018685
   0.00056490  0.25019816  0.25065376
   0.12547209  0.12407730  0.12458065
   0.37535309  0.37420991  0.12521301
   0.37491834  0.12474424  0.37486761
   0.12549115  0.37536348  0.37433869
   0.00005527  0.99912007  0.49952122
   0.24947471  0.24982720  0.50083211
   0.24988560  0.99992779  0.74997953
   0.99933969  0.25014840  0.75037737
   0.12429636  0.12546633  0.62571634
   0.37567582  0.37454864  0.62535813
   0.37486187  0.12510948  0.87470611
   0.12448051  0.37417686  0.87510361
   0.99957425  0.50046989  0.99937330
   0.24989933  0.75000896  0.00040046
   0.25010067  0.49940124  0.24946127
   0.00056657  0.74934237  0.25031667
   0.12589048  0.62532724  0.12502542
   0.37419762  0.87588728  0.12466325
   0.37592917  0.62547187  0.37450918
   0.12477451  0.87585189  0.37578776
   0.99929165  0.49998406  0.50050060
   0.25008378  0.74999200  0.49988863
   0.24924500  0.50033749  0.74971568
   0.00077972  0.74931487  0.74931582
   0.12450267  0.62564737  0.62572391
   0.37596121  0.87579488  0.62477078
   0.37453959  0.62464080  0.87563012
   0.12484633  0.87407048  0.87429777
   0.50000836  0.99917441  0.99978759
   0.74945210  0.24913885  0.00010509
   0.75028039  0.99927926  0.24962512
   0.50027250  0.25073610  0.25087613
   0.62461893  0.12487245  0.12524513
   0.87467978  0.37412302  0.12551010
   0.87473205  0.12431119  0.37509851
   0.62569695  0.37461388  0.37430276
   0.49960834  0.99913972  0.49922387
   0.75093157  0.24987677  0.49982061
   0.74958267  0.00063575  0.74968528
   0.49915116  0.24936091  0.74988636
   0.62494099  0.12545643  0.62460942
   0.87439377  0.37593602  0.62553111
   0.87421907  0.12461966  0.87594544
   0.62546834  0.37443753  0.87409453
   0.49948800  0.50050729  0.99943694
   0.75088538  0.75012955  0.99954635
   0.75038950  0.49947923  0.24948948
   0.50009440  0.74998467  0.24960030
   0.62525548  0.62557703  0.12563599
   0.87454562  0.87575136  0.12556968
   0.87481158  0.62517938  0.37496495
   0.62582576  0.87532411  0.37522028
   0.50038731  0.50075972  0.50034358
   0.74995923  0.75031335  0.49995014
   0.75085442  0.50062064  0.74992927
   0.50026381  0.75076225  0.75099806
   0.62562886  0.62580578  0.62429808
   0.87534871  0.87518188  0.62576876
   0.87445284  0.62515033  0.87505055
   0.62458095  0.87464940  0.87515880
 
 position of ions in cartesian coordinates  (Angst):
  10.95917201 10.96590370 10.96056707
   2.74860469  2.74983226 10.96671384
   2.73804258  0.00448013  2.74417933
   0.00619528  2.74430598  2.74930063
   1.37624289  1.36094558  1.36646524
   4.11706838  4.10453128  1.37340132
   4.11229841  1.36826229  4.11174264
   1.37645107  4.11718559  4.10594115
   0.00060501 10.95887573  5.47900816
   2.73636681  2.74023845  5.49338664
   2.74087329 10.96773661  8.22616492
  10.96127609  2.74376288  8.23052866
   1.36334464  1.37618394  6.86318178
   4.12060598  4.10824937  6.85925273
   4.11167672  1.37227117  9.59423080
   1.36536362  4.10417278  9.59859086
  10.96384802  5.48942168 10.96164533
   2.74102703  8.22649165  0.00439243
   2.74323407  5.47769610  2.73622070
   0.00621407  8.21918155  2.74560319
   1.38083253  6.85891787  1.37134377
   4.10439516  9.60719175  1.36737124
   4.12338631  6.86050560  4.10781115
   1.36859114  9.60680500  4.12183533
  10.96075059  5.48409012  5.48975051
   2.74304794  8.22630839  5.48303813
   2.73384635  5.48796805  8.22327091
   0.00854980  8.21888258  8.21888499
   1.36560808  6.86243187  6.86326475
   4.12373685  9.60618104  6.85281036
   4.10814229  6.85139269  9.60436590
   1.36937664  9.58726828  9.58975199
   5.48434909 10.95947442 10.96618942
   8.22038206  2.73268554  0.00115265
   8.22946681 10.96062045  2.73801794
   5.48724895  2.75020642  2.75173972
   6.85114598  1.36966726  1.37375363
   9.59394412  4.10357820  1.37665991
   9.59451605  1.36351235  4.11427523
   6.86296936  4.10896354  4.10554700
   5.47996377 10.95909128  5.47574664
   8.23660731  2.74078216  5.48229203
   8.22181050  0.00697735  8.22293745
   5.47494720  2.73512535  8.22514305
   6.85467622  1.37607535  6.85104043
   9.59080471  4.12346683  6.86115009
   9.58888710  1.36689850  9.60782445
   6.86045957  4.10703196  9.58752273
   5.47864103  5.48983189 10.96234337
   8.23609898  8.22781982 10.96354343
   8.23066302  5.47855156  2.73653021
   5.48529603  8.22622657  2.73774575
   6.85812850  6.86165770  1.37804079
   9.59247316  9.60570096  1.37731346
   9.59538890  6.85729736  4.11281028
   6.86438272  9.60101597  4.11561088
   5.48850742  5.49259804  5.48802826
   8.22594270  8.22983306  5.48371274
   8.23576026  5.49107388  8.22561363
   5.48715188  8.23475828  8.23733669
   6.86222169  6.86416942  6.84762555
   9.60127954  9.59945731  6.86375671
   9.59145180  6.85698153  9.59800886
   6.85072677  9.59361818  9.59919614
 


--------------------------------------------------------------------------------------------------------


 k-point   1 :   0.2500 0.2500 0.2500  plane waves:   11845
 k-point   2 :  -0.2500 0.2500 0.2500  plane waves:   11845
 k-point   3 :  -0.2500-0.2500 0.2500  plane waves:   11845
 k-point   4 :   0.2500-0.2500 0.2500  plane waves:   11845

 maximum and minimum number of plane-waves per node :       432      410

 maximum number of plane-waves:     11845
 maximum index in each direction: 
   IXMAX=   14   IYMAX=   14   IZMAX=   13
   IXMIN=  -14   IYMIN=  -14   IZMIN=  -14


 real space projection operators:
  total allocation   :       3419.75 KBytes
  max/ min on nodes  :        171.12         75.94


 parallel 3D FFT for wavefunctions:
    minimum data exchange during FFTs selected (reduces bandwidth)
 parallel 3D FFT for charge:
    minimum data exchange during FFTs selected (reduces bandwidth)


 total amount of memory used by VASP MPI-rank0    37810. kBytes
=======================================================================

   base      :      30000. kBytes
   nonlr-proj:       1181. kBytes
   fftplans  :        841. kBytes
   grid      :       1174. kBytes
   one-center:          9. kBytes
   wavefun   :       4605. kBytes
 
     INWAV:  cpu time     17.7824: real time     17.8221
 Broyden mixing: mesh for mixing (old mesh)
   NGX = 29   NGY = 29   NGZ = 29
  (NGX  = 84   NGY  = 84   NGZ  = 84)
  gives a total of  24389 points

 initial charge density was supplied:
 number of electron     256.0000455 magnetization 
 keeping initial charge density in first step


--------------------------------------------------------------------------------------------------------


 Maximum index for non-local projection operator          112
 Maximum index for augmentation-charges          180 (set IRDMAX)


--------------------------------------------------------------------------------------------------------


 First call to EWALD:  gamma=   0.162
 Maximum number of real-space cells 3x 3x 3
 Maximum number of reciprocal cells 3x 3x 3

    FEWALD:  cpu time      0.1037: real time      0.1039


--------------------------------------- Ionic step        1  -------------------------------------------




--------------------------------------- Iteration      1(   1)  ---------------------------------------


    POTLOK:  cpu time      0.4240: real time      0.8251
    SETDIJ:  cpu time      0.1397: real time      0.1400
     EDDAV:  cpu time     49.3651: real time     49.4755
       DOS:  cpu time      0.0127: real time      0.0127
    CHARGE:  cpu time      1.4773: real time      1.4807
    MIXING:  cpu time      0.0831: real time      0.0833
    --------------------------------------------
      LOOP:  cpu time     51.5018: real time     52.0173

 eigenvalue-minimisations  :  1591
 total energy-change (2. order) :-0.3383510E+03  (-0.4066021E+02)
 number of electron     256.0000424 magnetization 
 augmentation part      -14.5854224 magnetization 

 Broyden mixing:
  rms(total) = 0.35664E+00    rms(broyden)= 0.35664E+00
  rms(prec ) = 0.35846E+00
  weight for this iteration     100.00

 Free energy of the ion-electron system (eV)
  ---------------------------------------------------
  alpha Z        PSCENC =       104.48889404
  Ewald energy   TEWEN  =     -7241.52121871
  -Hartree energ DENC   =      -488.86737483
  -exchange      EXHF   =         0.00000000
  -V(xc)+E(xc)   XCENC  =      -578.86910918
  PAW double counting   =     30382.28540564   -29262.84456534
  entropy T*S    EENTRO =        -0.00000000
  eigenvalues    EBANDS =       151.02496831
  atomic energy  EATOM  =      6595.95197522
  Solvation  Ediel_sol  =         0.00000000
  ---------------------------------------------------
  free energy    TOTEN  =      -338.35102484 eV

  energy without entropy =     -338.35102484  energy(sigma->0) =     -338.35102484


--------------------------------------------------------------------------------------------------------




--------------------------------------- Iteration      1(   2)  ---------------------------------------


    POTLOK:  cpu time      0.0458: real time      0.0469
    SETDIJ:  cpu time      0.0019: real time      0.0019
    EDDIAG:  cpu time      4.4334: real time      4.4436
  RMM-DIIS:  cpu time     22.3682: real time     22.4185
    ORTHCH:  cpu time      0.4868: real time      0.4878
       DOS:  cpu time      0.1157: real time      0.1160
    CHARGE:  cpu time      3.3660: real time      3.3737
    MIXING:  cpu time      0.0265: real time      0.0306
    --------------------------------------------
      LOOP:  cpu time     30.8443: real time     30.9191

 eigenvalue-minimisations  :  1398
 total energy-change (2. order) :-0.6868948E+01  (-0.6872027E+01)
 number of electron     256.0000425 magnetization 
 augmentation part      -14.6293232 magnetization 

 Broyden mixing:
  rms(total) = 0.71099E-01    rms(broyden)= 0.71098E-01
  rms(prec ) = 0.73327E-01
  weight for this iteration     100.00

 eigenvalues of (default mixing * dielectric matrix)
  average eigenvalue GAMMA=   0.8522
  0.8522

 Free energy of the ion-electron system (eV)
  ---------------------------------------------------
  alpha Z        PSCENC =       104.48889404
  Ewald energy   TEWEN  =     -7241.52121871
  -Hartree energ DENC   =      -488.82079452
  -exchange      EXHF   =         0.00000000
  -V(xc)+E(xc)   XCENC  =      -578.82309883
  PAW double counting   =     31821.79507907   -30702.28309410
  entropy T*S    EENTRO =        -0.00000000
  eigenvalues    EBANDS =       143.99228486
  atomic energy  EATOM  =      6595.95197522
  Solvation  Ediel_sol  =         0.00000000
  ---------------------------------------------------
  free energy    TOTEN  =      -345.21997296 eV

  energy without entropy =     -345.21997296  energy(sigma->0) =     -345.21997296


--------------------------------------------------------------------------------------------------------




--------------------------------------- Iteration      1(   3)  ---------------------------------------


    POTLOK:  cpu time      0.0470: real time      0.0477
    SETDIJ:  cpu time      0.0018: real time      0.0019
    EDDIAG:  cpu time      8.1939: real time      8.2129
  RMM-DIIS:  cpu time     29.7885: real time     29.8547
    ORTHCH:  cpu time      0.0655: real time      0.0657
       DOS:  cpu time      0.0343: real time      0.0343
    CHARGE:  cpu time      1.6289: real time      1.6325
    MIXING:  cpu time      0.0362: real time      0.0363
    --------------------------------------------
      LOOP:  cpu time     39.7961: real time     39.8859

 eigenvalue-minimisations  :  1507
 total energy-change (2. order) :-0.1007132E+01  (-0.1076434E+01)
 number of electron     256.0000425 magnetization 
 augmentation part      -14.6251084 magnetization 

 Broyden mixing:
  rms(total) = 0.10333E+00    rms(broyden)= 0.10333E+00
  rms(prec ) = 0.10426E+00
  weight for this iteration     100.00

 eigenvalues of (default mixing * dielectric matrix)
  average eigenvalue GAMMA=   0.9153
  0.9153  0.9153

 Free energy of the ion-electron system (eV)
  ---------------------------------------------------
  alpha Z        PSCENC =       104.48889404
  Ewald energy   TEWEN  =     -7241.52121871
  -Hartree energ DENC   =      -488.86991366
  -exchange      EXHF   =         0.00000000
  -V(xc)+E(xc)   XCENC  =      -578.82364218
  PAW double counting   =     31667.54909444   -30548.05915884
  entropy T*S    EENTRO =        -0.00000000
  eigenvalues    EBANDS =       143.05686504
  atomic energy  EATOM  =      6595.95197522
  Solvation  Ediel_sol  =         0.00000000
  ---------------------------------------------------
  free energy    TOTEN  =      -346.22710466 eV

  energy without entropy =     -346.22710466  energy(sigma->0) =     -346.22710466


--------------------------------------------------------------------------------------------------------




--------------------------------------- Iteration      1(   4)  ---------------------------------------


    POTLOK:  cpu time      0.0459: real time      0.0467
    SETDIJ:  cpu time      0.0018: real time      0.0018
    EDDIAG:  cpu time      5.8583: real time      5.8713
  RMM-DIIS:  cpu time     24.4664: real time     24.5216
    ORTHCH:  cpu time      0.1984: real time      0.1989
       DOS:  cpu time      0.0332: real time      0.0333
    CHARGE:  cpu time      0.8572: real time      0.8592
    MIXING:  cpu time      0.0003: real time      0.0003
    --------------------------------------------
      LOOP:  cpu time     31.4616: real time     31.5331

 eigenvalue-minimisations  :  1603
 total energy-change (2. order) :-0.1992299E+00  (-0.1982034E+00)
 number of electron     256.0000425 magnetization 
 augmentation part      -14.6244813 magnetization 

 Broyden mixing:
  rms(total) = 0.87797E-01    rms(broyden)= 0.87797E-01
  rms(prec ) = 0.88634E-01
  weight for this iteration     100.00

 eigenvalues of (default mixing * dielectric matrix)
  average eigenvalue GAMMA=   1.0686
  0.7659  1.2199  1.2199

 Free energy of the ion-electron system (eV)
  ---------------------------------------------------
  alpha Z        PSCENC =       104.48889404
  Ewald energy   TEWEN  =     -7241.52121871
  -Hartree energ DENC   =      -488.85020780
  -exchange      EXHF   =         0.00000000
  -V(xc)+E(xc)   XCENC  =      -578.83945123
  PAW double counting   =     31287.51577114   -30168.04464131
  entropy T*S    EENTRO =        -0.00000000
  eigenvalues    EBANDS =       142.87254410
  atomic energy  EATOM  =      6595.95197522
  Solvation  Ediel_sol  =         0.00000000
  ---------------------------------------------------
  free energy    TOTEN  =      -346.42633456 eV

  energy without entropy =     -346.42633456  energy(sigma->0) =     -346.42633456


--------------------------------------------------------------------------------------------------------




--------------------------------------- Iteration      1(   5)  ---------------------------------------


    POTLOK:  cpu time      0.0470: real time      0.0476
    SETDIJ:  cpu time      0.0019: real time      0.0019
    EDDIAG:  cpu time      5.1716: real time      5.1835
  RMM-DIIS:  cpu time     28.0384: real time     28.1020
    ORTHCH:  cpu time      0.2786: real time      0.2792
       DOS:  cpu time      0.1511: real time      0.1515
    CHARGE:  cpu time      2.3839: real time      2.3894
    MIXING:  cpu time      0.0003: real time      0.0003
    --------------------------------------------
      LOOP:  cpu time     36.0727: real time     36.1554

 eigenvalue-minimisations  :  1605
 total energy-change (2. order) :-0.3548369E-01  (-0.3596434E-01)
 number of electron     256.0000425 magnetization 
 augmentation part      -14.6215484 magnetization 

 Broyden mixing:
  rms(total) = 0.61315E-01    rms(broyden)= 0.61315E-01
  rms(prec ) = 0.61775E-01
  weight for this iteration     100.00

 eigenvalues of (default mixing * dielectric matrix)
  average eigenvalue GAMMA=   1.3938
  1.8931  1.8931  0.8946  0.8946

 Free energy of the ion-electron system (eV)
  ---------------------------------------------------
  alpha Z        PSCENC =       104.48889404
  Ewald energy   TEWEN  =     -7241.52121871
  -Hartree energ DENC   =      -488.87765633
  -exchange      EXHF   =         0.00000000
  -V(xc)+E(xc)   XCENC  =      -578.85141211
  PAW double counting   =     30915.30084145   -29795.84904579
  entropy T*S    EENTRO =        -0.00000000
  eigenvalues    EBANDS =       142.89580399
  atomic energy  EATOM  =      6595.95197522
  Solvation  Ediel_sol  =         0.00000000
  ---------------------------------------------------
  free energy    TOTEN  =      -346.46181825 eV

  energy without entropy =     -346.46181825  energy(sigma->0) =     -346.46181825


--------------------------------------------------------------------------------------------------------




--------------------------------------- Iteration      1(   6)  ---------------------------------------


    POTLOK:  cpu time      0.5466: real time      0.5487
    SETDIJ:  cpu time      0.0018: real time      0.0018
    EDDIAG:  cpu time      4.6018: real time      4.6124
  RMM-DIIS:  cpu time     26.7491: real time     26.8096
    ORTHCH:  cpu time      0.1018: real time      0.1020
       DOS:  cpu time      0.0013: real time      0.0013
    CHARGE:  cpu time      1.5484: real time      1.5520
    MIXING:  cpu time      0.0004: real time      0.0004
    --------------------------------------------
      LOOP:  cpu time     33.5513: real time     33.6283

 eigenvalue-minimisations  :  1619
 total energy-change (2. order) :-0.7804112E-02  (-0.7974439E-02)
 number of electron     256.0000425 magnetization 
 augmentation part      -14.6197180 magnetization 

 Broyden mixing:
  rms(total) = 0.87920E-02    rms(broyden)= 0.87919E-02
  rms(prec ) = 0.93107E-02
  weight for this iteration     100.00

 eigenvalues of (default mixing * dielectric matrix)
  average eigenvalue GAMMA=   1.3044
  2.2836  1.2030  1.2030  1.0503  0.7822

 Free energy of the ion-electron system (eV)
  ---------------------------------------------------
  alpha Z        PSCENC =       104.48889404
  Ewald energy   TEWEN  =     -7241.52121871
  -Hartree energ DENC   =      -488.87856343
  -exchange      EXHF   =         0.00000000
  -V(xc)+E(xc)   XCENC  =      -578.87993727
  PAW double counting   =     30170.68530844   -29051.26624158
  entropy T*S    EENTRO =        -0.00000000
  eigenvalues    EBANDS =       142.95016092
  atomic energy  EATOM  =      6595.95197522
  Solvation  Ediel_sol  =         0.00000000
  ---------------------------------------------------
  free energy    TOTEN  =      -346.46962236 eV

  energy without entropy =     -346.46962236  energy(sigma->0) =     -346.46962236


--------------------------------------------------------------------------------------------------------




--------------------------------------- Iteration      1(   7)  ---------------------------------------


    POTLOK:  cpu time      0.0463: real time      0.0470
    SETDIJ:  cpu time      0.0018: real time      0.0018
    EDDIAG:  cpu time      7.8538: real time      7.8715
  RMM-DIIS:  cpu time     26.1759: real time     26.2353
    ORTHCH:  cpu time      0.1114: real time      0.1117
       DOS:  cpu time      0.1553: real time      0.1557
    CHARGE:  cpu time      2.9647: real time      2.9715
    MIXING:  cpu time      0.0004: real time      0.0004
    --------------------------------------------
      LOOP:  cpu time     37.3098: real time     37.3949

 eigenvalue-minimisations  :  1438
 total energy-change (2. order) :-0.1443488E-02  (-0.1452200E-02)
 number of electron     256.0000425 magnetization 
 augmentation part      -14.6190911 magnetization 

 Broyden mixing:
  rms(total) = 0.77717E-02    rms(broyden)= 0.77717E-02
  rms(prec ) = 0.81034E-02
  weight for this iteration     100.00

 eigenvalues of (default mixing * dielectric matrix)
  average eigenvalue GAMMA=   1.3751
  2.4404  1.5835  1.5835  0.9931  0.8252  0.8252

 Free energy of the ion-electron system (eV)
  ---------------------------------------------------
  alpha Z        PSCENC =       104.48889404
  Ewald energy   TEWEN  =     -7241.52121871
  -Hartree energ DENC   =      -488.85185278
  -exchange      EXHF   =         0.00000000
  -V(xc)+E(xc)   XCENC  =      -578.88254976
  PAW double counting   =     30172.65398129   -29053.23550393
  entropy T*S    EENTRO =        -0.00000000
  eigenvalues    EBANDS =       142.92520878
  atomic energy  EATOM  =      6595.95197522
  Solvation  Ediel_sol  =         0.00000000
  ---------------------------------------------------
  free energy    TOTEN  =      -346.47106585 eV

  energy without entropy =     -346.47106585  energy(sigma->0) =     -346.47106585


--------------------------------------------------------------------------------------------------------




--------------------------------------- Iteration      1(   8)  ---------------------------------------


    POTLOK:  cpu time      0.0452: real time      0.0461
    SETDIJ:  cpu time      0.0019: real time      0.0019
    EDDIAG:  cpu time      8.2217: real time      8.2405
  RMM-DIIS:  cpu time     22.4479: real time     22.4984
    ORTHCH:  cpu time      0.5391: real time      0.5403
       DOS:  cpu time      0.1297: real time      0.1300
    CHARGE:  cpu time      1.5323: real time      1.5359
    MIXING:  cpu time      0.1360: real time      0.1363
    --------------------------------------------
      LOOP:  cpu time     33.0538: real time     33.1293

 eigenvalue-minimisations  :  1252
 total energy-change (2. order) :-0.2602261E-03  (-0.2867997E-03)
 number of electron     256.0000425 magnetization 
 augmentation part      -14.6191840 magnetization 

 Broyden mixing:
  rms(total) = 0.39852E-02    rms(broyden)= 0.39852E-02
  rms(prec ) = 0.41086E-02
  weight for this iteration     100.00

 eigenvalues of (default mixing * dielectric matrix)
  average eigenvalue GAMMA=   1.3980
  2.5996  1.6563  1.6563  1.0475  1.0475  0.8166  0.9622

 Free energy of the ion-electron system (eV)
  ---------------------------------------------------
  alpha Z        PSCENC =       104.48889404
  Ewald energy   TEWEN  =     -7241.52121871
  -Hartree energ DENC   =      -488.81674925
  -exchange      EXHF   =         0.00000000
  -V(xc)+E(xc)   XCENC  =      -578.88096124
  PAW double counting   =     30301.03280143   -29181.60789730
  entropy T*S    EENTRO =        -0.00000000
  eigenvalues    EBANDS =       142.88182973
  atomic energy  EATOM  =      6595.95197522
  Solvation  Ediel_sol  =         0.00000000
  ---------------------------------------------------
  free energy    TOTEN  =      -346.47132608 eV

  energy without entropy =     -346.47132608  energy(sigma->0) =     -346.47132608


--------------------------------------------------------------------------------------------------------




--------------------------------------- Iteration      1(   9)  ---------------------------------------


    POTLOK:  cpu time      0.0461: real time      0.0468
    SETDIJ:  cpu time      0.0018: real time      0.0018
    EDDIAG:  cpu time      5.6888: real time      5.7017
  RMM-DIIS:  cpu time     19.5934: real time     19.6370
    ORTHCH:  cpu time      0.3166: real time      0.3174
       DOS:  cpu time      0.1188: real time      0.1190
    --------------------------------------------
      LOOP:  cpu time     25.7655: real time     25.8238

 eigenvalue-minimisations  :  1039
 total energy-change (2. order) :-0.5878320E-04  (-0.6147972E-04)
 number of electron     256.0000425 magnetization 
 augmentation part      -14.6191840 magnetization 

 Free energy of the ion-electron system (eV)
  ---------------------------------------------------
  alpha Z        PSCENC =       104.48889404
  Ewald energy   TEWEN  =     -7241.52121871
  -Hartree energ DENC   =      -488.80982649
  -exchange      EXHF   =         0.00000000
  -V(xc)+E(xc)   XCENC  =      -578.88285605
  PAW double counting   =     30270.77530078   -29151.35075086
  entropy T*S    EENTRO =        -0.00000000
  eigenvalues    EBANDS =       142.87709721
  atomic energy  EATOM  =      6595.95197522
  Solvation  Ediel_sol  =         0.00000000
  ---------------------------------------------------
  free energy    TOTEN  =      -346.47138486 eV

  energy without entropy =     -346.47138486  energy(sigma->0) =     -346.47138486


--------------------------------------------------------------------------------------------------------




 average (electrostatic) potential at core
  the test charge radii are     0.9892
  (the norm of the test charge is              1.0000)
       1 -83.5824       2 -83.5767       3 -83.5773       4 -83.5750       5 -83.5764
       6 -83.5757       7 -83.5819       8 -83.5797       9 -83.5706      10 -83.5781
      11 -83.5805      12 -83.5800      13 -83.5776      14 -83.5773      15 -83.5748
      16 -83.5746      17 -83.5791      18 -83.5738      19 -83.5789      20 -83.5845
      21 -83.5803      22 -83.5803      23 -83.5827      24 -83.5765      25 -83.5758
      26 -83.5827      27 -83.5762      28 -83.5753      29 -83.5748      30 -83.5765
      31 -83.5760      32 -83.5856      33 -83.5799      34 -83.5755      35 -83.5830
      36 -83.5843      37 -83.5810      38 -83.5723      39 -83.5798      40 -83.5758
      41 -83.5747      42 -83.5853      43 -83.5837      44 -83.5726      45 -83.5775
      46 -83.5816      47 -83.5726      48 -83.5866      49 -83.5752      50 -83.5823
      51 -83.5679      52 -83.5786      53 -83.5746      54 -83.5816      55 -83.5753
      56 -83.5748      57 -83.5823      58 -83.5737      59 -83.5836      60 -83.5786
      61 -83.5790      62 -83.5826      63 -83.5856      64 -83.5744
 
 
 
 E-fermi :   5.7709     XC(G=0):  -9.2943     alpha+bet :-11.6323

 Fermi energy:         5.7708584436

 k-point     1 :       0.2500    0.2500    0.2500
  band No.  band energies     occupation 
      1      -6.0267      2.00000
      2      -5.5104      2.00000
      3      -5.5010      2.00000
      4      -5.4969      2.00000
      5      -5.0160      2.00000
      6      -5.0073      2.00000
      7      -5.0025      2.00000
      8      -4.5818      2.00000
      9      -4.4874      2.00000
     10      -4.4795      2.00000
     11      -4.4742      2.00000
     12      -4.0814      2.00000
     13      -4.0734      2.00000
     14      -4.0685      2.00000
     15      -4.0661      2.00000
     16      -4.0614      2.00000
     17      -4.0576      2.00000
     18      -3.8861      2.00000
     19      -3.8822      2.00000
     20      -3.8712      2.00000
     21      -3.3977      2.00000
     22      -3.3924      2.00000
     23      -3.3830      2.00000
     24      -3.0248      2.00000
     25      -3.0202      2.00000
     26      -3.0111      2.00000
     27      -2.8676      2.00000
     28      -2.8604      2.00000
     29      -2.8541      2.00000
     30      -2.8534      2.00000
     31      -2.8471      2.00000
     32      -2.8433      2.00000
     33      -1.3358      2.00000
     34      -1.3290      2.00000
     35      -1.3255      2.00000
     36      -1.3219      2.00000
     37      -1.3151      2.00000
     38      -1.3127      2.00000
     39      -1.2321      2.00000
     40      -1.2282      2.00000
     41      -1.2215      2.00000
     42      -1.0987      2.00000
     43      -1.0914      2.00000
     44      -1.0876      2.00000
     45      -1.0251      2.00000
     46      -1.0067      2.00000
     47      -0.9935      2.00000
     48      -0.3037      2.00000
     49      -0.2473      2.00000
     50      -0.2429      2.00000
     51      -0.2384      2.00000
     52      -0.2334      2.00000
     53      -0.2279      2.00000
     54      -0.2266      2.00000
     55       0.6185      2.00000
     56       0.6342      2.00000
     57       0.6409      2.00000
     58       0.9648      2.00000
     59       0.9688      2.00000
     60       0.9743      2.00000
     61       1.5941      2.00000
     62       1.5979      2.00000
     63       1.6001      2.00000
     64       1.6019      2.00000
     65       1.6068      2.00000
     66       1.6071      2.00000
     67       1.6512      2.00000
     68       1.6551      2.00000
     69       1.6617      2.00000
     70       2.2035      2.00000
     71       2.2083      2.00000
     72       2.2125      2.00000
     73       2.2932      2.00000
     74       2.2952      2.00000
     75       2.2975      2.00000
     76       2.3023      2.00000
     77       2.3054      2.00000
     78       2.3132      2.00000
     79       2.3312      2.00000
     80       2.3369      2.00000
     81       2.3400      2.00000
     82       2.6593      2.00000
     83       2.6641      2.00000
     84       2.6679      2.00000
     85       2.6721      2.00000
     86       2.6746      2.00000
     87       2.6772      2.00000
     88       2.9223      2.00000
     89       2.9263      2.00000
     90       2.9271      2.00000
     91       2.9374      2.00000
     92       2.9421      2.00000
     93       2.9472      2.00000
     94       3.2797      2.00000
     95       3.2897      2.00000
     96       3.2929      2.00000
     97       3.3019      2.00000
     98       3.3052      2.00000
     99       3.3192      2.00000
    100       3.3863      2.00000
    101       3.3898      2.00000
    102       3.3962      2.00000
    103       3.6531      2.00000
    104       3.6586      2.00000
    105       3.6658      2.00000
    106       3.6711      2.00000
    107       3.6746      2.00000
    108       3.6833      2.00000
    109       3.6962      2.00000
    110       3.7011      2.00000
    111       3.7073      2.00000
    112       3.9550      2.00000
    113       4.0097      2.00000
    114       4.0162      2.00000
    115       4.0170      2.00000
    116       4.2532      2.00000
    117       4.2579      2.00000
    118       4.2646      2.00000
    119       4.3127      2.00000
    120       4.3288      2.00000
    121       4.3381      2.00000
    122       4.4738      2.00000
    123       4.4792      2.00000
    124       4.7720      2.00000
    125       4.7787      2.00000
    126       4.7869      2.00000
    127       5.2566      2.00000
    128       5.2628      2.00000
    129       6.4864      0.00000
    130       6.4938      0.00000
    131       6.4976      0.00000
    132       6.9190      0.00000
    133       6.9226      0.00000
    134       6.9319      0.00000
    135       7.1069      0.00000
    136       7.4026      0.00000
    137       7.4062      0.00000
    138       7.4130      0.00000
    139       7.5364      0.00000
    140       7.5464      0.00000
    141       7.5505      0.00000
    142       7.6813      0.00000
    143       7.6851      0.00000
    144       7.6896      0.00000
    145       7.6955      0.00000
    146       7.6974      0.00000
    147       7.7013      0.00000
    148       7.9354      0.00000
    149       7.9419      0.00000
    150       7.9454      0.00000
    151       7.9494      0.00000
    152       7.9562      0.00000
    153       7.9579      0.00000
    154       7.9623      0.00000
    155       8.1706      0.00000
    156       8.1739      0.00000
    157       8.1783      0.00000
    158       8.3990      0.00000
    159       8.4071      0.00000
    160       8.4188      0.00000
    161       8.4407      0.00000

 k-point     2 :      -0.2500    0.2500    0.2500
  band No.  band energies     occupation 
      1      -6.0266      2.00000
      2      -5.5078      2.00000
      3      -5.5025      2.00000
      4      -5.4989      2.00000
      5      -5.0133      2.00000
      6      -5.0079      2.00000
      7      -5.0042      2.00000
      8      -4.5791      2.00000
      9      -4.4836      2.00000
     10      -4.4789      2.00000
     11      -4.4757      2.00000
     12      -4.0825      2.00000
     13      -4.0754      2.00000
     14      -4.0721      2.00000
     15      -4.0695      2.00000
     16      -4.0647      2.00000
     17      -4.0532      2.00000
     18      -3.8857      2.00000
     19      -3.8840      2.00000
     20      -3.8728      2.00000
     21      -3.3918      2.00000
     22      -3.3877      2.00000
     23      -3.3805      2.00000
     24      -3.0277      2.00000
     25      -3.0237      2.00000
     26      -3.0087      2.00000
     27      -2.8667      2.00000
     28      -2.8631      2.00000
     29      -2.8562      2.00000
     30      -2.8546      2.00000
     31      -2.8477      2.00000
     32      -2.8407      2.00000
     33      -1.3339      2.00000
     34      -1.3293      2.00000
     35      -1.3274      2.00000
     36      -1.3224      2.00000
     37      -1.3159      2.00000
     38      -1.3046      2.00000
     39      -1.2344      2.00000
     40      -1.2275      2.00000
     41      -1.2136      2.00000
     42      -1.0952      2.00000
     43      -1.0872      2.00000
     44      -1.0817      2.00000
     45      -1.0302      2.00000
     46      -1.0224      2.00000
     47      -1.0043      2.00000
     48      -0.3121      2.00000
     49      -0.2510      2.00000
     50      -0.2387      2.00000
     51      -0.2345      2.00000
     52      -0.2319      2.00000
     53      -0.2259      2.00000
     54      -0.2135      2.00000
     55       0.6176      2.00000
     56       0.6224      2.00000
     57       0.6361      2.00000
     58       0.9650      2.00000
     59       0.9697      2.00000
     60       0.9737      2.00000
     61       1.5956      2.00000
     62       1.5978      2.00000
     63       1.6004      2.00000
     64       1.6019      2.00000
     65       1.6054      2.00000
     66       1.6086      2.00000
     67       1.6522      2.00000
     68       1.6594      2.00000
     69       1.6638      2.00000
     70       2.1996      2.00000
     71       2.2016      2.00000
     72       2.2094      2.00000
     73       2.2940      2.00000
     74       2.2984      2.00000
     75       2.3048      2.00000
     76       2.3068      2.00000
     77       2.3115      2.00000
     78       2.3145      2.00000
     79       2.3349      2.00000
     80       2.3410      2.00000
     81       2.3448      2.00000
     82       2.6612      2.00000
     83       2.6628      2.00000
     84       2.6666      2.00000
     85       2.6696      2.00000
     86       2.6745      2.00000
     87       2.6778      2.00000
     88       2.9246      2.00000
     89       2.9291      2.00000
     90       2.9304      2.00000
     91       2.9412      2.00000
     92       2.9459      2.00000
     93       2.9482      2.00000
     94       3.2750      2.00000
     95       3.2819      2.00000
     96       3.2860      2.00000
     97       3.2946      2.00000
     98       3.3012      2.00000
     99       3.3121      2.00000
    100       3.3877      2.00000
    101       3.3925      2.00000
    102       3.3996      2.00000
    103       3.6500      2.00000
    104       3.6556      2.00000
    105       3.6574      2.00000
    106       3.6628      2.00000
    107       3.6681      2.00000
    108       3.6768      2.00000
    109       3.6976      2.00000
    110       3.7036      2.00000
    111       3.7121      2.00000
    112       3.9449      2.00000
    113       4.0163      2.00000
    114       4.0206      2.00000
    115       4.0213      2.00000
    116       4.2568      2.00000
    117       4.2623      2.00000
    118       4.2701      2.00000
    119       4.3077      2.00000
    120       4.3132      2.00000
    121       4.3268      2.00000
    122       4.4759      2.00000
    123       4.4837      2.00000
    124       4.7764      2.00000
    125       4.7842      2.00000
    126       4.7956      2.00000
    127       5.2611      2.00000
    128       5.2696      2.00000
    129       6.4929      0.00000
    130       6.4956      0.00000
    131       6.5017      0.00000
    132       6.9170      0.00000
    133       6.9260      0.00000
    134       6.9361      0.00000
    135       7.1109      0.00000
    136       7.4090      0.00000
    137       7.5322      0.00000
    138       7.5432      0.00000
    139       7.5461      0.00000
    140       7.6835      0.00000
    141       7.6873      0.00000
    142       7.6887      0.00000
    143       7.6951      0.00000
    144       7.6993      0.00000
    145       7.7017      0.00000
    146       7.8909      0.00000
    147       7.9322      0.00000
    148       7.9366      0.00000
    149       7.9426      0.00000
    150       7.9505      0.00000
    151       7.9526      0.00000
    152       7.9566      0.00000
    153       8.1512      0.00000
    154       8.2843      0.00000
    155       8.3778      0.00000
    156       8.4280      0.00000
    157       8.4461      0.00000
    158       8.4281      0.00000
    159       8.5065      0.00000
    160       9.0566      0.00000
    161       9.0617      0.00000

 k-point     3 :      -0.2500   -0.2500    0.2500
  band No.  band energies     occupation 
      1      -6.0267      2.00000
      2      -5.5077      2.00000
      3      -5.5018      2.00000
      4      -5.4993      2.00000
      5      -5.0135      2.00000
      6      -5.0073      2.00000
      7      -5.0049      2.00000
      8      -4.5805      2.00000
      9      -4.4848      2.00000
     10      -4.4786      2.00000
     11      -4.4765      2.00000
     12      -4.0812      2.00000
     13      -4.0770      2.00000
     14      -4.0707      2.00000
     15      -4.0644      2.00000
     16      -4.0631      2.00000
     17      -4.0560      2.00000
     18      -3.8869      2.00000
     19      -3.8809      2.00000
     20      -3.8729      2.00000
     21      -3.3960      2.00000
     22      -3.3870      2.00000
     23      -3.3844      2.00000
     24      -3.0282      2.00000
     25      -3.0179      2.00000
     26      -3.0117      2.00000
     27      -2.8663      2.00000
     28      -2.8619      2.00000
     29      -2.8546      2.00000
     30      -2.8533      2.00000
     31      -2.8495      2.00000
     32      -2.8414      2.00000
     33      -1.3362      2.00000
     34      -1.3293      2.00000
     35      -1.3245      2.00000
     36      -1.3200      2.00000
     37      -1.3174      2.00000
     38      -1.3099      2.00000
     39      -1.2360      2.00000
     40      -1.2261      2.00000
     41      -1.2172      2.00000
     42      -1.0983      2.00000
     43      -1.0907      2.00000
     44      -1.0819      2.00000
     45      -1.0244      2.00000
     46      -1.0106      2.00000
     47      -1.0047      2.00000
     48      -0.3075      2.00000
     49      -0.2502      2.00000
     50      -0.2408      2.00000
     51      -0.2360      2.00000
     52      -0.2332      2.00000
     53      -0.2279      2.00000
     54      -0.2190      2.00000
     55       0.6220      2.00000
     56       0.6285      2.00000
     57       0.6353      2.00000
     58       0.9647      2.00000
     59       0.9682      2.00000
     60       0.9753      2.00000
     61       1.5959      2.00000
     62       1.5969      2.00000
     63       1.5990      2.00000
     64       1.6024      2.00000
     65       1.6062      2.00000
     66       1.6087      2.00000
     67       1.6520      2.00000
     68       1.6562      2.00000
     69       1.6625      2.00000
     70       2.2021      2.00000
     71       2.2049      2.00000
     72       2.2109      2.00000
     73       2.2920      2.00000
     74       2.2955      2.00000
     75       2.3002      2.00000
     76       2.3042      2.00000
     77       2.3109      2.00000
     78       2.3139      2.00000
     79       2.3343      2.00000
     80       2.3371      2.00000
     81       2.3426      2.00000
     82       2.6608      2.00000
     83       2.6652      2.00000
     84       2.6687      2.00000
     85       2.6695      2.00000
     86       2.6727      2.00000
     87       2.6778      2.00000
     88       2.9228      2.00000
     89       2.9238      2.00000
     90       2.9311      2.00000
     91       2.9399      2.00000
     92       2.9425      2.00000
     93       2.9500      2.00000
     94       3.2804      2.00000
     95       3.2848      2.00000
     96       3.2907      2.00000
     97       3.3018      2.00000
     98       3.3050      2.00000
     99       3.3098      2.00000
    100       3.3865      2.00000
    101       3.3920      2.00000
    102       3.3971      2.00000
    103       3.6559      2.00000
    104       3.6599      2.00000
    105       3.6624      2.00000
    106       3.6658      2.00000
    107       3.6704      2.00000
    108       3.6746      2.00000
    109       3.6969      2.00000
    110       3.7026      2.00000
    111       3.7091      2.00000
    112       3.9509      2.00000
    113       4.0123      2.00000
    114       4.0136      2.00000
    115       4.0231      2.00000
    116       4.2545      2.00000
    117       4.2610      2.00000
    118       4.2667      2.00000
    119       4.3129      2.00000
    120       4.3233      2.00000
    121       4.3286      2.00000
    122       4.4729      2.00000
    123       4.4837      2.00000
    124       4.7739      2.00000
    125       4.7823      2.00000
    126       4.7897      2.00000
    127       5.2564      2.00000
    128       5.2685      2.00000
    129       6.4902      0.00000
    130       6.4918      0.00000
    131       6.5011      0.00000
    132       6.9186      0.00000
    133       6.9258      0.00000
    134       6.9315      0.00000
    135       7.1087      0.00000
    136       7.4053      0.00000
    137       7.5358      0.00000
    138       7.5425      0.00000
    139       7.5495      0.00000
    140       7.6829      0.00000
    141       7.6866      0.00000
    142       7.6888      0.00000
    143       7.6931      0.00000
    144       7.6951      0.00000
    145       7.7057      0.00000
    146       7.9382      0.00000
    147       7.9419      0.00000
    148       7.9439      0.00000
    149       7.9494      0.00000
    150       7.9591      0.00000
    151       8.1710      0.00000
    152       8.4699      0.00000
    153       8.5066      0.00000
    154       8.5544      0.00000
    155       9.0635      0.00000
    156       9.0675      0.00000
    157       9.0699      0.00000
    158       9.0741      0.00000
    159       9.2739      0.00000
    160       9.3359      0.00000
    161       9.8297      0.00000

 k-point     4 :       0.2500   -0.2500    0.2500
  band No.  band energies     occupation 
      1      -6.0266      2.00000
      2      -5.5105      2.00000
      3      -5.5013      2.00000
      4      -5.4971      2.00000
      5      -5.0157      2.00000
      6      -5.0076      2.00000
      7      -5.0022      2.00000
      8      -4.5803      2.00000
      9      -4.4866      2.00000
     10      -4.4783      2.00000
     11      -4.4743      2.00000
     12      -4.0824      2.00000
     13      -4.0743      2.00000
     14      -4.0697      2.00000
     15      -4.0681      2.00000
     16      -4.0631      2.00000
     17      -4.0558      2.00000
     18      -3.8861      2.00000
     19      -3.8798      2.00000
     20      -3.8769      2.00000
     21      -3.3948      2.00000
     22      -3.3879      2.00000
     23      -3.3812      2.00000
     24      -3.0271      2.00000
     25      -3.0179      2.00000
     26      -3.0132      2.00000
     27      -2.8667      2.00000
     28      -2.8618      2.00000
     29      -2.8569      2.00000
     30      -2.8527      2.00000
     31      -2.8482      2.00000
     32      -2.8422      2.00000
     33      -1.3348      2.00000
     34      -1.3327      2.00000
     35      -1.3247      2.00000
     36      -1.3218      2.00000
     37      -1.3144      2.00000
     38      -1.3085      2.00000
     39      -1.2328      2.00000
     40      -1.2263      2.00000
     41      -1.2169      2.00000
     42      -1.0953      2.00000
     43      -1.0910      2.00000
     44      -1.0815      2.00000
     45      -1.0255      2.00000
     46      -1.0159      2.00000
     47      -1.0063      2.00000
     48      -0.3102      2.00000
     49      -0.2441      2.00000
     50      -0.2422      2.00000
     51      -0.2374      2.00000
     52      -0.2331      2.00000
     53      -0.2268      2.00000
     54      -0.2176      2.00000
     55       0.6201      2.00000
     56       0.6258      2.00000
     57       0.6355      2.00000
     58       0.9639      2.00000
     59       0.9697      2.00000
     60       0.9745      2.00000
     61       1.5914      2.00000
     62       1.5989      2.00000
     63       1.6004      2.00000
     64       1.6044      2.00000
     65       1.6056      2.00000
     66       1.6072      2.00000
     67       1.6540      2.00000
     68       1.6585      2.00000
     69       1.6620      2.00000
     70       2.2019      2.00000
     71       2.2037      2.00000
     72       2.2098      2.00000
     73       2.2908      2.00000
     74       2.2963      2.00000
     75       2.3023      2.00000
     76       2.3046      2.00000
     77       2.3090      2.00000
     78       2.3128      2.00000
     79       2.3350      2.00000
     80       2.3425      2.00000
     81       2.3457      2.00000
     82       2.6596      2.00000
     83       2.6634      2.00000
     84       2.6678      2.00000
     85       2.6706      2.00000
     86       2.6725      2.00000
     87       2.6801      2.00000
     88       2.9214      2.00000
     89       2.9264      2.00000
     90       2.9319      2.00000
     91       2.9420      2.00000
     92       2.9446      2.00000
     93       2.9486      2.00000
     94       3.2786      2.00000
     95       3.2835      2.00000
     96       3.2909      2.00000
     97       3.2990      2.00000
     98       3.3032      2.00000
     99       3.3083      2.00000
    100       3.3873      2.00000
    101       3.3932      2.00000
    102       3.3970      2.00000
    103       3.6523      2.00000
    104       3.6597      2.00000
    105       3.6632      2.00000
    106       3.6658      2.00000
    107       3.6675      2.00000
    108       3.6710      2.00000
    109       3.6971      2.00000
    110       3.7044      2.00000
    111       3.7092      2.00000
    112       3.9479      2.00000
    113       4.0125      2.00000
    114       4.0176      2.00000
    115       4.0231      2.00000
    116       4.2562      2.00000
    117       4.2626      2.00000
    118       4.2665      2.00000
    119       4.3121      2.00000
    120       4.3168      2.00000
    121       4.3265      2.00000
    122       4.4732      2.00000
    123       4.4848      2.00000
    124       4.7767      2.00000
    125       4.7845      2.00000
    126       4.7907      2.00000
    127       5.2584      2.00000
    128       5.2697      2.00000
    129       6.4914      0.00000
    130       6.4950      0.00000
    131       6.4994      0.00000
    132       6.9192      0.00000
    133       6.9252      0.00000
    134       6.9333      0.00000
    135       7.1096      0.00000
    136       7.4066      0.00000
    137       7.5376      0.00000
    138       7.5401      0.00000
    139       7.5482      0.00000
    140       7.6807      0.00000
    141       7.6850      0.00000
    142       7.6914      0.00000
    143       7.6945      0.00000
    144       7.6974      0.00000
    145       7.7033      0.00000
    146       7.9292      0.00000
    147       7.9367      0.00000
    148       7.9414      0.00000
    149       7.9436      0.00000
    150       7.9478      0.00000
    151       7.9556      0.00000
    152       7.9647      0.00000
    153       8.1639      0.00000
    154       8.1802      0.00000
    155       8.4109      0.00000
    156       8.4165      0.00000
    157       8.4628      0.00000
    158       8.5067      0.00000
    159       8.5114      0.00000
    160       9.0554      0.00000
    161       9.0649      0.00000


--------------------------------------------------------------------------------------------------------


 soft charge-density along one line, spin component           1
         0         1         2         3         4         5         6         7         8         9
 total charge-density along one line
 
 pseudopotential strength for first ion, spin component:           1
 18.449  25.740   0.000  -0.000  -0.000   0.000  -0.000  -0.000
 25.740  35.916   0.000  -0.000  -0.000   0.000  -0.001  -0.000
  0.000   0.000   4.182  -0.000  -0.000   7.794  -0.000  -0.000
 -0.000  -0.000  -0.000   4.182   0.000  -0.000   7.794   0.000
 -0.000  -0.000  -0.000   0.000   4.182  -0.000   0.000   7.794
  0.000   0.000   7.794  -0.000  -0.000  14.534  -0.000  -0.000
 -0.000  -0.001  -0.000   7.794   0.000  -0.000  14.534   0.000
 -0.000  -0.000  -0.000   0.000   7.794  -0.000   0.000  14.534
 total augmentation occupancy for first ion, spin component:           1
  5.792  -2.200   0.019  -0.002  -0.032  -0.006   0.001   0.011
 -2.200   0.946  -0.010  -0.000   0.015   0.003  -0.000  -0.005
  0.019  -0.010   3.210  -0.026  -0.014  -0.769   0.008   0.005
 -0.002  -0.000  -0.026   3.215   0.010   0.008  -0.771  -0.003
 -0.032   0.015  -0.014   0.010   3.222   0.005  -0.003  -0.773
 -0.006   0.003  -0.769   0.008   0.005   0.192  -0.002  -0.001
  0.001  -0.000   0.008  -0.771  -0.003  -0.002   0.193   0.001
  0.011  -0.005   0.005  -0.003  -0.773  -0.001   0.001   0.193


------------------------ aborting loop because EDIFF is reached ----------------------------------------


    CHARGE:  cpu time      0.6154: real time      0.6168
    FORLOC:  cpu time      0.0317: real time      0.0318
    FORNL :  cpu time      9.3516: real time      9.3720
    STRESS:  cpu time     29.8492: real time     29.9171
    FORCOR:  cpu time      0.1419: real time      0.1422
    FORHAR:  cpu time      0.1646: real time      0.1649
    MIXING:  cpu time      0.0460: real time      0.0462
    OFIELD:  cpu time      0.0000: real time      0.0000

  FORCE on cell =-STRESS in cart. coord.  units (eV):
  Direction    XX          YY          ZZ          XY          YZ          ZX
  --------------------------------------------------------------------------------------
  Alpha Z   104.48889   104.48889   104.48889
  Ewald   -2413.83026 -2413.89961 -2413.83675    -3.71168    -0.42477    -2.18107
  Hartree   162.93400   162.92762   162.94342    -0.42350    -0.05200    -0.23617
  E(xc)    -806.93963  -806.93889  -806.94034     0.02803     0.00229     0.01712
  Local    -952.07081  -951.99935  -952.08462     3.89470     0.44751     2.26592
  n-local  2477.61366  2477.59943  2477.62499    -0.73358    -0.07182    -0.43582
  augment  -371.58383  -371.58287  -371.58269     0.03382     0.00348     0.01957
  Kinetic  1791.83948  1791.84427  1791.82669     0.47556     0.05825     0.27555
  Fock        0.00000     0.00000     0.00000     0.00000     0.00000     0.00000
  -------------------------------------------------------------------------------------
  Total      -7.54849    -7.56051    -7.56039    -0.43664    -0.03705    -0.27491
  in kB      -9.16488    -9.17946    -9.17932    -0.53014    -0.04498    -0.33378
  external pressure =       -9.17 kB  Pullay stress =        0.00 kB


 VOLUME and BASIS-vectors are now :
 -----------------------------------------------------------------------------
  energy-cutoff  :      250.00
  volume of cell :     1319.61
      direct lattice vectors                 reciprocal lattice vectors
    10.968521870  0.000000000  0.000000000     0.091169987 -0.000000009  0.000000038
     0.000001080 10.968524540  0.000000000     0.000000000  0.091169965 -0.000000045
    -0.000004590  0.000005420 10.968519290     0.000000000  0.000000000  0.091170009

  length of vectors
    10.968521870 10.968524540 10.968519290     0.091169987  0.091169965  0.091170009


 FORCES acting on ions
    electron-ion (+dipol)            ewald-force                    non-local-force                 convergence-correction
 -----------------------------------------------------------------------------------------------
   -.904E+00 0.212E+00 -.168E-01   0.801E+00 -.168E+00 0.422E-01   0.229E+00 -.960E-01 0.441E-01   0.138E-03 0.122E-02 0.217E-03
   0.331E+00 0.436E-01 -.164E+00   -.296E+00 -.586E-01 0.181E+00   -.103E+00 -.130E+00 0.185E-01   0.128E-02 -.339E-03 -.917E-03
   -.213E-01 0.199E+00 -.222E+00   0.962E-02 -.125E+00 0.170E+00   0.368E-01 -.120E+00 0.566E-01   -.170E-02 0.159E-02 -.867E-03
   -.249E+00 0.303E+00 0.209E+00   0.253E+00 -.247E+00 -.199E+00   -.312E-01 -.186E+00 -.950E-01   -.741E-03 -.801E-03 -.108E-03
   0.451E+00 -.498E+00 0.531E+00   -.387E+00 0.470E+00 -.466E+00   -.155E+00 0.175E+00 -.103E+00   -.146E-05 0.174E-02 0.187E-04
   -.471E+00 -.191E+00 0.632E-01   0.418E+00 0.215E+00 -.747E-01   0.847E-01 0.992E-01 -.332E-01   -.221E-03 -.881E-03 -.789E-03
   0.877E-01 -.694E+00 -.154E+00   -.104E+00 0.645E+00 0.167E+00   -.160E-01 0.125E+00 0.412E-01   -.430E-03 0.160E-02 -.236E-03
   -.164E+00 -.461E+00 -.772E+00   0.166E+00 0.405E+00 0.690E+00   -.563E-01 0.550E-01 0.262E+00   -.236E-03 0.471E-03 0.243E-03
   -.300E-02 -.781E+00 -.543E+00   -.301E-02 0.723E+00 0.484E+00   -.448E-01 0.223E+00 0.220E+00   -.485E-03 0.107E-02 -.501E-03
   -.572E-01 -.415E+00 0.283E+00   0.594E-01 0.416E+00 -.242E+00   0.657E-01 0.253E-01 -.133E+00   -.993E-03 0.536E-03 0.105E-02
   0.190E+00 0.101E+00 0.400E-01   -.160E+00 -.562E-01 -.441E-01   -.337E-01 -.283E-01 -.205E-01   -.280E-03 0.226E-02 0.470E-03
   0.417E+00 0.202E+00 0.128E+00   -.341E+00 -.183E+00 -.103E+00   -.150E+00 -.550E-01 -.743E-02   0.232E-02 -.187E-02 -.482E-03
   0.302E+00 0.601E-01 0.170E+00   -.265E+00 -.375E-01 -.160E+00   -.580E-01 -.123E+00 -.729E-01   0.192E-03 0.493E-03 0.450E-03
   0.108E+00 -.932E+00 0.518E+00   -.115E+00 0.846E+00 -.485E+00   -.106E+00 0.214E+00 -.886E-01   -.180E-02 -.863E-04 0.110E-02
   0.127E+00 0.190E+00 -.535E+00   -.154E+00 -.159E+00 0.483E+00   0.148E-01 -.105E+00 0.125E+00   -.855E-03 0.183E-02 0.122E-02
   -.281E+00 -.103E+00 -.254E+00   0.230E+00 0.126E+00 0.216E+00   0.861E-01 0.122E+00 0.168E-01   0.288E-02 -.119E-02 0.442E-03
   -.908E-01 0.231E+00 -.891E+00   0.762E-01 -.259E+00 0.820E+00   0.406E-01 -.547E-01 0.210E+00   0.166E-02 -.186E-02 0.911E-03
   -.626E-01 -.235E+00 0.127E+00   0.678E-01 0.190E+00 -.868E-01   0.138E-01 0.875E-01 -.102E+00   -.577E-03 -.522E-03 -.157E-02
   -.292E+00 -.324E+00 -.477E+00   0.278E+00 0.272E+00 0.445E+00   0.114E+00 0.152E+00 0.743E-01   0.143E-03 -.158E-02 0.105E-03
   -.205E+00 0.200E-01 0.352E+00   0.216E+00 -.600E-01 -.305E+00   -.477E-01 0.178E+00 -.681E-01   -.107E-02 -.651E-03 0.134E-02
   0.514E+00 0.582E+00 -.139E+00   -.449E+00 -.524E+00 0.123E+00   -.188E+00 -.152E+00 -.118E-01   0.258E-03 -.159E-02 0.129E-02
   -.421E-01 0.161E+00 -.539E+00   0.181E-01 -.140E+00 0.469E+00   0.854E-01 -.128E+00 0.152E+00   0.225E-03 0.214E-02 -.662E-03
   0.715E+00 0.580E+00 -.222E+00   -.640E+00 -.544E+00 0.211E+00   -.208E+00 -.122E+00 0.330E-01   -.130E-02 -.261E-02 0.130E-02
   -.522E+00 0.615E+00 0.576E+00   0.470E+00 -.602E+00 -.496E+00   0.130E+00 -.181E+00 -.204E+00   -.152E-02 0.781E-03 0.136E-02
   -.100E+01 0.384E+00 0.621E+00   0.909E+00 -.348E+00 -.592E+00   0.207E+00 -.601E-02 -.972E-01   0.167E-03 0.136E-02 -.132E-02
   -.344E+00 0.733E+00 0.775E-02   0.347E+00 -.662E+00 -.266E-01   0.425E-01 -.322E-01 0.613E-01   -.157E-02 -.168E-02 0.600E-03
   -.547E+00 0.417E+00 0.372E+00   0.519E+00 -.404E+00 -.350E+00   0.949E-01 -.114E+00 0.372E-01   0.522E-04 -.182E-02 -.707E-03
   0.696E+00 -.177E+00 -.510E+00   -.573E+00 0.185E+00 0.460E+00   -.310E+00 0.692E-01 0.189E+00   0.155E-02 -.724E-03 -.296E-02
   -.103E+01 0.686E+00 0.131E+01   0.959E+00 -.670E+00 -.120E+01   0.160E+00 -.138E+00 -.317E+00   -.956E-03 -.421E-04 -.550E-03
   0.436E+00 0.670E+00 -.238E+00   -.406E+00 -.648E+00 0.190E+00   -.161E+00 -.159E+00 0.104E+00   -.929E-03 0.279E-03 0.132E-02
   -.592E-01 0.729E-01 0.862E+00   0.638E-01 -.139E+00 -.773E+00   -.245E-01 0.152E+00 -.209E+00   -.847E-03 -.164E-02 -.108E-03
   -.122E+00 -.486E+00 -.499E+00   0.110E+00 0.406E+00 0.438E+00   0.169E-01 0.149E+00 0.138E+00   0.680E-03 0.166E-02 -.209E-03
   0.840E-01 -.567E+00 -.757E-01   -.846E-01 0.517E+00 0.957E-01   -.316E-01 0.189E+00 -.304E-02   -.776E-03 0.376E-02 -.341E-03
   0.272E+00 -.896E+00 -.189E+00   -.242E+00 0.812E+00 0.183E+00   -.266E-01 0.180E+00 0.456E-01   -.868E-03 -.137E-02 0.152E-02
   0.393E+00 -.692E+00 -.207E-01   -.374E+00 0.638E+00 0.157E-01   -.113E+00 0.216E+00 0.652E-01   0.824E-04 0.923E-03 0.356E-03
   0.272E+00 0.219E+00 -.602E-01   -.238E+00 -.167E+00 0.841E-01   -.620E-01 -.207E+00 -.978E-01   -.129E-04 -.147E-03 -.357E-02
   0.657E+00 -.930E-01 -.319E+00   -.605E+00 0.120E+00 0.257E+00   -.877E-01 -.702E-01 0.823E-01   -.892E-03 0.164E-02 -.168E-03
   -.607E+00 0.190E-01 0.632E+00   0.570E+00 0.186E-01 -.551E+00   0.125E+00 0.156E-01 -.207E+00   -.385E-04 -.117E-02 0.227E-02
   -.226E+00 -.348E+00 0.224E+00   0.264E+00 0.338E+00 -.192E+00   0.579E-01 0.362E-01 -.765E-01   0.152E-02 0.200E-03 0.121E-03
   0.337E+00 -.451E+00 -.881E+00   -.297E+00 0.451E+00 0.791E+00   -.512E-01 0.121E+00 0.261E+00   0.803E-03 0.119E-02 -.129E-02
   -.258E+00 -.629E+00 0.109E+00   0.219E+00 0.577E+00 -.953E-01   0.171E+00 0.218E+00 0.220E-01   0.116E-02 0.395E-03 0.138E-03
   -.241E-01 -.273E+00 -.183E+00   -.332E-01 0.231E+00 0.159E+00   -.376E-01 0.746E-01 0.547E-01   0.120E-02 -.122E-02 -.183E-02
   0.166E+00 0.115E+00 0.139E+00   -.162E+00 -.482E-01 -.115E+00   -.214E-01 -.139E+00 0.413E-01   0.572E-03 0.865E-03 -.487E-03
   -.344E+00 -.321E+00 -.103E+00   0.310E+00 0.322E+00 0.793E-01   0.186E+00 0.356E-01 0.286E-01   -.270E-02 -.641E-03 0.129E-02
   0.316E+00 -.219E+00 0.515E+00   -.301E+00 0.237E+00 -.482E+00   -.761E-01 -.686E-01 -.105E+00   0.205E-04 -.240E-03 0.514E-03
   -.962E-01 0.783E+00 0.286E+00   0.110E+00 -.668E+00 -.267E+00   0.759E-01 -.240E+00 -.624E-01   0.184E-02 0.185E-03 -.181E-02
   -.354E+00 -.327E+00 0.451E+00   0.308E+00 0.305E+00 -.395E+00   0.741E-01 0.741E-01 -.202E+00   0.493E-03 0.384E-04 0.789E-03
   0.251E+00 -.526E+00 -.144E+00   -.281E+00 0.498E+00 0.142E+00   -.502E-01 0.107E+00 0.622E-01   -.227E-02 -.204E-02 0.204E-02
   -.866E+00 0.487E+00 -.131E+00   0.800E+00 -.418E+00 0.107E+00   0.228E+00 -.179E+00 0.122E+00   -.206E-02 -.279E-02 0.850E-03
   0.114E+00 0.203E+00 -.345E+00   -.135E+00 -.188E+00 0.361E+00   -.109E+00 0.268E-01 0.102E+00   0.185E-03 0.905E-03 0.151E-02
   -.430E-01 -.395E+00 0.191E+00   0.437E-01 0.311E+00 -.206E+00   -.308E-01 0.158E+00 0.584E-01   0.704E-03 -.731E-03 0.898E-03
   0.311E+00 -.587E+00 0.167E+00   -.272E+00 0.492E+00 -.144E+00   -.259E-01 0.257E+00 -.473E-02   0.140E-02 -.111E-02 -.310E-04
   -.767E-01 0.529E+00 0.524E+00   0.480E-01 -.507E+00 -.485E+00   0.391E-01 -.107E+00 -.206E+00   0.224E-03 -.164E-02 0.195E-02
   -.873E+00 0.811E+00 -.759E-01   0.830E+00 -.748E+00 0.334E-01   0.204E+00 -.253E+00 -.359E-01   0.493E-03 0.145E-02 0.982E-03
   -.229E-01 0.259E+00 0.332E+00   0.714E-01 -.274E+00 -.312E+00   -.518E-01 -.360E-01 -.142E-01   0.573E-03 -.948E-03 0.115E-02
   0.415E+00 0.175E+00 0.296E+00   -.408E+00 -.179E+00 -.257E+00   -.115E+00 -.842E-01 -.120E+00   0.249E-02 0.953E-03 0.301E-03
   0.422E+00 0.639E+00 -.497E-01   -.403E+00 -.567E+00 0.597E-01   0.151E-01 -.199E+00 -.806E-01   -.199E-02 -.570E-03 -.117E-02
   -.395E+00 -.119E+00 0.315E-01   0.325E+00 0.965E-01 -.177E-01   0.170E+00 0.657E-01 -.666E-03   0.186E-02 -.646E-05 -.201E-02
   0.128E+01 -.110E-01 -.341E+00   -.120E+01 -.128E-01 0.303E+00   -.267E+00 0.229E-01 0.333E-01   -.457E-04 -.111E-02 -.153E-02
   0.693E+00 0.128E+01 0.464E+00   -.613E+00 -.114E+01 -.405E+00   -.146E+00 -.285E+00 -.186E+00   -.158E-02 -.109E-03 -.935E-03
   0.835E+00 0.327E+00 -.733E+00   -.803E+00 -.317E+00 0.630E+00   -.998E-01 -.281E-01 0.271E+00   -.668E-03 0.579E-03 -.112E-02
   0.270E+00 -.182E+00 -.343E+00   -.228E+00 0.181E+00 0.281E+00   -.783E-01 -.375E-01 -.772E-02   0.127E-02 0.741E-03 -.152E-02
   -.133E+00 -.183E+00 -.275E+00   0.132E+00 0.116E+00 0.309E+00   0.147E+00 0.974E-01 -.935E-01   0.222E-02 0.603E-03 -.190E-03
   -.673E+00 -.190E+00 -.920E-01   0.572E+00 0.110E+00 0.464E-01   0.253E+00 0.145E+00 0.398E-01   -.395E-03 0.229E-02 -.405E-05
 -----------------------------------------------------------------------------------------------
   0.814E-03 -.436E-03 -.266E-02   0.916E-13 0.112E-12 -.166E-13   -.643E-02 0.483E-02 0.540E-02   -.166E-03 0.103E-05 0.120E-03
 
 
 POSITION                                       TOTAL-FORCE (eV/Angst)
 -----------------------------------------------------------------------------------
     10.95917     10.96590     10.96057         0.126631     -0.050880      0.069614
      2.74860      2.74983     10.96671        -0.066267     -0.145045      0.035337
      2.73804      0.00448      2.74418         0.023531     -0.045234      0.003834
      0.00620      2.74431      2.74930        -0.027577     -0.131775     -0.085620
      1.37624      1.36095      1.36647        -0.090133      0.148927     -0.038620
      4.11707      4.10453      1.37340         0.031628      0.121886     -0.045561
      4.11230      1.36826      4.11174        -0.032875      0.077504      0.053886
      1.37645      4.11719      4.10594        -0.053744     -0.000605      0.180080
      0.00061     10.95888      5.47901        -0.051209      0.166939      0.160871
      2.73637      2.74024      5.49339         0.066974      0.027516     -0.090398
      2.74087     10.96774      8.22616        -0.003876      0.018832     -0.024258
     10.96128      2.74376      8.23053        -0.072475     -0.038333      0.017390
      1.36334      1.37618      6.86318        -0.020803     -0.099980     -0.061619
      4.12061      4.10825      6.85925        -0.114598      0.127232     -0.054555
      4.11168      1.37227      9.59423        -0.012689     -0.071905      0.074125
      1.36536      4.10417      9.59859         0.038755      0.144467     -0.020876
     10.96385      5.48942     10.96165         0.027729     -0.084643      0.140277
      2.74103      8.22649      0.00439         0.018552      0.042084     -0.062585
      2.74323      5.47770      2.73622         0.100690      0.097917      0.041683
      0.00621      8.21918      2.74560        -0.038281      0.137490     -0.019288
      1.38083      6.85892      1.37134        -0.123169     -0.096465     -0.026953
      4.10440      9.60719      1.36737         0.061725     -0.103845      0.079906
      4.12339      6.86051      4.10781        -0.134271     -0.088160      0.023853
      1.36859      9.60681      4.12184         0.076229     -0.167402     -0.122256
     10.96075      5.48409      5.48975         0.113985      0.031449     -0.069730
      2.74305      8.22631      5.48304         0.043495      0.037064      0.043088
      2.73385      5.48797      8.22327         0.067193     -0.102932      0.058061
      0.00855      8.21888      8.21888        -0.185561      0.076175      0.136548
      1.36561      6.86243      6.86326         0.089306     -0.123276     -0.211247
      4.12374      9.60618      6.85281        -0.131640     -0.136706      0.057458
      4.10814      6.85139      9.60437        -0.020649      0.083885     -0.119813
      1.36938      9.58727      9.58975         0.005855      0.070245      0.076742
      5.48435     10.95947     10.96619        -0.032851      0.143075      0.016573
      8.22038      2.73269      0.00115         0.002220      0.094011      0.040492
      8.22947     10.96062      2.73802        -0.094154      0.162611      0.060497
      5.48725      2.75021      2.75174        -0.028242     -0.154987     -0.077558
      6.85115      1.36967      1.37375        -0.036951     -0.041673      0.019962
      9.59394      4.10358      1.37666         0.088143      0.051980     -0.123690
      9.59452      1.36351      4.11428         0.097567      0.026151     -0.045180
      6.86297      4.10896      4.10555        -0.010519      0.121939      0.170185
      5.47996     10.95909      5.47575         0.133423      0.166508      0.036165
      8.23661      2.74078      5.48229        -0.093609      0.031450      0.028978
      8.22181      0.00698      8.22294        -0.016915     -0.070797      0.065306
      5.47495      2.73513      8.22514         0.149038      0.036357      0.006177
      6.85468      1.37608      6.85104        -0.060688     -0.050969     -0.071239
      9.59080      4.12347      6.86115         0.091244     -0.125257     -0.045002
      9.58889      1.36690      9.60782         0.028834      0.052381     -0.145161
      6.86046      4.10703      9.58752        -0.082217      0.076959      0.062891
      5.47864      5.48983     10.96234         0.159549     -0.113159      0.098865
      8.23610      8.22782     10.96354        -0.129916      0.042691      0.118450
      8.23066      5.47855      2.73653        -0.029289      0.073032      0.044338
      5.48530      8.22623      2.73775         0.015398      0.160815      0.018998
      6.85813      6.86166      1.37804         0.010731     -0.086428     -0.164755
      9.59247      9.60570      1.37731         0.161088     -0.188650     -0.077423
      9.59539      6.85730      4.11281        -0.002618     -0.051644      0.007664
      6.86438      9.60102      4.11561        -0.105180     -0.087030     -0.081187
      5.48851      5.49260      5.48803         0.032420     -0.127013     -0.071885
      8.22594      8.22983      5.48371         0.102374      0.043543      0.011058
      8.23576      5.49107      8.22561        -0.190519     -0.002023     -0.006068
      5.48715      8.23476      8.23734        -0.066961     -0.149733     -0.128060
      6.86222      6.86417      6.84763        -0.068610     -0.016972      0.167204
      9.60128      9.59946      6.86376        -0.035203     -0.037137     -0.070785
      9.59145      6.85698      9.59801         0.148455      0.030641     -0.059314
      6.85073      9.59362      9.59920         0.151500      0.066905     -0.005868
 -----------------------------------------------------------------------------------
    total drift:                               -0.005786      0.004394      0.002859


--------------------------------------------------------------------------------------------------------



  FREE ENERGIE OF THE ION-ELECTRON SYSTEM (eV)
  ---------------------------------------------------
  free  energy   TOTEN  =      -346.47138486 eV

  energy  without entropy=     -346.47138486  energy(sigma->0) =     -346.47138486
 


--------------------------------------------------------------------------------------------------------


    POTLOK:  cpu time      0.2779: real time      0.2786


--------------------------------------------------------------------------------------------------------


 writing wavefunctions
     LOOP+:  cpu time    373.9658: real time    376.2583
    4ORBIT:  cpu time      0.0000: real time      0.0000

 total amount of memory used by VASP MPI-rank0    37810. kBytes
=======================================================================

   base      :      30000. kBytes
   nonlr-proj:       1181. kBytes
   fftplans  :        841. kBytes
   grid      :       1174. kBytes
   one-center:          9. kBytes
   wavefun   :       4605. kBytes
 
  
  
 General timing and accounting informations for this job:
 ========================================================
  
                  Total CPU time used (sec):      412.696
                            User time (sec):      412.502
                          System time (sec):        0.194
                         Elapsed time (sec):      416.250
  
                   Maximum memory used (kb):      218256.
                   Average memory used (kb):          N/A
  
                          Minor page faults:        19498
                          Major page faults:         8181
                 Voluntary context switches:         5446
