 vasp.6.4.2 20Jul23 (build Jun 27 2024 19:57:08) complex                        
  
 executed on                 T2A5 date 2026.01.13  21:11:01
 running   28 mpi-ranks, with    1 threads/rank, on    1 nodes
 distrk:  each k-point on   28 cores,    1 groups
 distr:  one band on NCORE=  28 cores,    1 groups


--------------------------------------------------------------------------------------------------------


 INCAR:
   ISTART = 1
   ICHARG = 1
   LWAVE = .T.
   LCHARG = .T.
   ENCUT = 250
   PREC = Normal
   ADDGRID = .F.
   EDIFF = 1E-4
   LREAL = Auto
   ALGO = Fast
   NSW = 0
   IBRION = -1
   ISMEAR = 0
   SIGMA = 0.1
   NPAR = 1
   KPAR = 1
   SYMPREC = 1E-4

 POTCAR:    PAW_PBE Si 05Jan2001                  
 POTCAR:    PAW_PBE Si 05Jan2001                  
   SHA256 =  79d9987ad8750f624c4d6acb2a16d13abf6a777132adc04dc6c8399be72b42bb Si/POTCAR             
   COPYR  = (c) Copyright 05Jan2001 Georg Kresse                                                    
   COPYR  = This file is part of the software VASP. Any use, copying, and all other rights are regul
   COPYR  = If you do not have a valid VASP license, you may not use, copy or distribute this file. 
   VRHFIN =Si: s2p2                                                                                 
   LEXCH  = PE                                                                                      
   EATOM  =   103.0669 eV,    7.5752 Ry                                                             
                                                                                                    
   TITEL  = PAW_PBE Si 05Jan2001                                                                    
   LULTRA =        F    use ultrasoft PP ?                                                          
   IUNSCR =        1    unscreen: 0-lin 1-nonlin 2-no                                               
   RPACOR =    1.500    partial core radius                                                         
   POMASS =   28.085; ZVAL   =    4.000    mass and valenz                                          
   RCORE  =    1.900    outmost cutoff radius                                                       
   RWIGS  =    2.480; RWIGS  =    1.312    wigner-seitz radius (au A)                               
   ENMAX  =  245.345; ENMIN  =  184.009 eV                                                          
   ICORE  =        2    local potential                                                             
   LCOR   =        T    correct aug charges                                                         
   LPAW   =        T    paw PP                                                                      
   EAUG   =  322.069                                                                                
   DEXC   =    0.000                                                                                
   RMAX   =    1.950    core radius for proj-oper                                                   
   RAUG   =    1.300    factor for augmentation sphere                                              
   RDEP   =    1.993    radius for radial grids                                                     
   RDEPT  =    1.837    core radius for aug-charge                                                  
                                                                                                    
   Atomic configuration                                                                             
    6 entries                                                                                       
     n  l   j            E        occ.                                                              
     1  0  0.50     -1785.8828   2.0000                                                             
     2  0  0.50      -139.4969   2.0000                                                             
     2  1  1.50       -95.5546   6.0000                                                             
     3  0  0.50       -10.8127   2.0000                                                             
     3  1  0.50        -4.0811   2.0000                                                             
     3  2  1.50        -4.0817   0.0000                                                             
   Description                                                                                      
     l       E           TYP  RCUT    TYP  RCUT                                                     
     0    -10.8127223     23  1.900                                                                 
     0     -7.6451159     23  1.900                                                                 
     1     -4.0811372     23  1.900                                                                 
     1      2.4879257     23  1.900                                                                 
     2     -4.0817478      7  1.900                                                                 
  local pseudopotential read in
  partial core-charges read in
  partial kinetic energy density read in
  atomic valenz-charges read in
  non local Contribution for L=           0  read in
    real space projection operators read in
  non local Contribution for L=           0  read in
    real space projection operators read in
  non local Contribution for L=           1  read in
    real space projection operators read in
  non local Contribution for L=           1  read in
    real space projection operators read in
    PAW grid and wavefunctions read in
 
   number of l-projection  operators is LMAX  =           4
   number of lm-projection operators is LMMAX =           8
 
 Optimization of the real space projectors (new method)

 maximal supplied QI-value         = 19.84
 optimisation between [QCUT,QGAM] = [  7.94, 16.07] = [ 17.64, 72.34] Ry 
 Optimized for a Real-space Cutoff    1.55 Angstroem

   l    n(q)    QCUT    max X(q) W(low)/X(q) W(high)/X(q)  e(spline) 
   0      7     7.937   159.560    0.97E-04    0.31E-03    0.13E-06
   0      7     7.937   115.863    0.95E-04    0.31E-03    0.13E-06
   1      7     7.937    88.339    0.40E-03    0.66E-03    0.12E-06
   1      7     7.937    48.592    0.39E-03    0.64E-03    0.12E-06
  PAW_PBE Si 05Jan2001                  :
 energy of atom  1       EATOM= -103.0669
 kinetic energy error for atom=    0.0052 (will be added to EATOM!!)
 
 
 POSCAR: Si
  positions in cartesian coordinates
  No initial velocities read in
 exchange correlation table for  LEXCH =        8
   RHO(1)=    0.500       N(1)  =     2000
   RHO(2)=  100.500       N(2)  =     4000
 


--------------------------------------------------------------------------------------------------------


 ion  position               nearest neighbor table
   1  0.004  0.993  0.995-  32 2.30   5 2.35  54 2.36  47 2.44
   2  0.253  0.250  0.001-   5 2.32  15 2.36  16 2.41   6 2.45
   3  0.245  0.008  0.253-  22 2.37  24 2.38   7 2.39   5 2.40
   4  0.012  0.242  0.251-   5 2.29  39 2.34  38 2.39   8 2.46
   5  0.122  0.127  0.115-   4 2.29   2 2.32   1 2.35   3 2.40
   6  0.391  0.376  0.124-  49 2.33  19 2.39  36 2.39   2 2.45
   7  0.368  0.134  0.384-  10 2.33  36 2.35  41 2.37   3 2.39
   8  0.131  0.380  0.383-  25 2.31  10 2.33   4 2.46  19 2.46
   9  1.000  0.002  0.512-  13 2.30  62 2.33  39 2.37  24 2.47
  10  0.247  0.255  0.512-   7 2.33   8 2.33  14 2.36  13 2.42
  11  0.245  0.000  0.748-  32 2.33  13 2.36  15 2.37  30 2.37
  12  0.983  0.251  0.764-  47 2.33  46 2.34  16 2.40  13 2.40
  13  0.113  0.130  0.636-   9 2.30  11 2.36  12 2.40  10 2.42
  14  0.376  0.385  0.626-  27 2.32  10 2.36  57 2.40  44 2.42
  15  0.373  0.120  0.876-  33 2.31   2 2.36  11 2.37  44 2.44
  16  0.121  0.378  0.880-  17 2.33  27 2.34  12 2.40   2 2.41
  17  0.000  0.497  0.009-  38 2.30  21 2.32  16 2.33  63 2.40
  18  0.249  0.755  0.003-  32 2.34  31 2.38  22 2.39  21 2.42
  19  0.265  0.503  0.250-  23 2.33   6 2.39  21 2.40   8 2.46
  20  0.010  0.750  0.258-  54 2.30  24 2.33  55 2.36  21 2.38
  21  0.126  0.620  0.127-  17 2.32  20 2.38  19 2.40  18 2.42
  22  0.373  0.882  0.131-  52 2.31  33 2.35   3 2.37  18 2.39
  23  0.385  0.629  0.373-  19 2.33  26 2.35  57 2.39  52 2.41
  24  0.132  0.873  0.382-  20 2.33  26 2.36   3 2.38   9 2.47
  25  0.003  0.503  0.498-   8 2.31  29 2.32  55 2.34  46 2.40
  26  0.265  0.753  0.502-  30 2.32  23 2.35  24 2.36  29 2.36
  27  0.246  0.496  0.752-  14 2.32  16 2.34  31 2.37  29 2.40
  28  0.999  0.749  0.750-  63 2.34  62 2.36  32 2.38  29 2.48
  29  0.133  0.625  0.615-  25 2.32  26 2.36  27 2.40  28 2.48
  30  0.380  0.879  0.630-  26 2.32  60 2.36  11 2.37  41 2.45
  31  0.370  0.626  0.876-  60 2.33  27 2.37  18 2.38  49 2.46
  32  0.128  0.874  0.873-   1 2.30  11 2.33  18 2.34  28 2.38
  33  0.496  0.003  0.002-  15 2.31  37 2.32  22 2.35  64 2.40
  34  0.737  0.251  0.009-  48 2.37  38 2.37  37 2.39  47 2.41
  35  0.752  0.006  0.249-  37 2.35  56 2.36  39 2.37  54 2.47
  36  0.504  0.250  0.263-  37 2.31   7 2.35   6 2.39  40 2.46
  37  0.612  0.122  0.134-  36 2.31  33 2.32  35 2.35  34 2.39
  38  0.883  0.365  0.124-  17 2.30  34 2.37   4 2.39  51 2.43
  39  0.883  0.123  0.375-   4 2.34  35 2.37   9 2.37  42 2.39
  40  0.639  0.384  0.385-  57 2.30  42 2.33  51 2.39  36 2.46
  41  0.505  0.005  0.492-  45 2.28   7 2.37  56 2.38  30 2.45
  42  0.761  0.253  0.501-  40 2.33  46 2.35  45 2.35  39 2.39
  43  0.740  0.005  0.746-  64 2.32  62 2.32  47 2.35  45 2.37
  44  0.502  0.248  0.747-  48 2.37  45 2.37  14 2.42  15 2.44
  45  0.623  0.129  0.612-  41 2.28  42 2.35  43 2.37  44 2.37
  46  0.877  0.380  0.630-  12 2.34  42 2.35  25 2.40  59 2.44
  47  0.861  0.121  0.881-  12 2.33  43 2.35  34 2.41   1 2.44
  48  0.625  0.376  0.872-  49 2.28  59 2.35  44 2.37  34 2.37
  49  0.512  0.499  0.997-  48 2.28  53 2.32   6 2.33  31 2.46
  50  0.757  0.757  0.008-  53 2.31  54 2.34  64 2.37  63 2.38
  51  0.758  0.503  0.245-  55 2.35  53 2.39  40 2.39  38 2.43
  52  0.505  0.762  0.244-  22 2.31  56 2.31  23 2.41  53 2.43
  53  0.631  0.628  0.118-  50 2.31  49 2.32  51 2.39  52 2.43
  54  0.890  0.870  0.132-  20 2.30  50 2.34   1 2.36  35 2.47
  55  0.878  0.626  0.376-  25 2.34  51 2.35  20 2.36  58 2.38
  56  0.631  0.875  0.371-  52 2.31  35 2.36  41 2.38  58 2.40
  57  0.512  0.505  0.501-  40 2.30  23 2.39  61 2.40  14 2.40
  58  0.763  0.760  0.503-  62 2.31  55 2.38  56 2.40  61 2.42
  59  0.743  0.511  0.752-  61 2.33  48 2.35  63 2.42  46 2.44
  60  0.497  0.749  0.756-  61 2.29  31 2.33  30 2.36  64 2.46
  61  0.625  0.642  0.630-  60 2.29  59 2.33  57 2.40  58 2.42
  62  0.873  0.882  0.636-  58 2.31  43 2.32   9 2.33  28 2.36
  63  0.880  0.628  0.881-  28 2.34  50 2.38  17 2.40  59 2.42
  64  0.632  0.881  0.881-  43 2.32  50 2.37  33 2.40  60 2.46
 
  LATTYP: Found a base centered monoclinic cell.
 ALAT       =    15.4441405723
 B/A-ratio  =     0.9998147537
 C/A-ratio  =     0.7071643397
 COS(beta)  =    -0.0011780293
  
  Lattice vectors:
  
 A1 = (  -0.0095637100,  10.9191164700,   0.0000000000)
 A2 = (  -0.0086299400,   0.0020155500,  10.9201658600)
 A3 = (  10.9215454700,   0.0000000000,   0.0000000000)


Analysis of symmetry for initial positions (statically):
=====================================================================
 Subroutine PRICEL returns:
 Original cell was already a primitive cell.
 

 Routine SETGRP: Setting up the symmetry group for a 
 base centered monoclinic supercell.


 Subroutine GETGRP returns: Found  1 space group operations
 (whereof  1 operations were pure point group operations)
 out of a pool of  4 trial point group operations.


The static configuration has the point symmetry C_1 .


Analysis of symmetry for dynamics (positions and initial velocities):
=====================================================================
 Subroutine PRICEL returns:
 Original cell was already a primitive cell.
 

 Routine SETGRP: Setting up the symmetry group for a 
 base centered monoclinic supercell.


 Subroutine GETGRP returns: Found  1 space group operations
 (whereof  1 operations were pure point group operations)
 out of a pool of  4 trial point group operations.


The dynamic configuration has the point symmetry C_1 .


 Subroutine INISYM returns: Found  1 space group operations
 (whereof  1 operations are pure point group operations),
 and found     1 'primitive' translations


----------------------------------------------------------------------------------------

                                     Primitive cell                                     

  volume of cell :    1302.2694

  direct lattice vectors                    reciprocal lattice vectors
    10.921545470  0.000000000  0.000000000     0.091562133  0.000080196  0.000072345
    -0.009563710 10.919116470  0.000000000     0.000000000  0.091582501 -0.000016904
    -0.008629940  0.002015550 10.920165860     0.000000000  0.000000000  0.091573701

  length of vectors
    10.921545470 10.919120658 10.920169456     0.091562197  0.091582503  0.091573701

  position of ions in fractional coordinates (direct lattice)
     0.004188737  0.993007946  0.995073176
     0.252820611  0.249855945  0.001156449
     0.245281745  0.008387335  0.253158761
     0.011502675  0.241648272  0.250894752
     0.122376162  0.126920084  0.115320044
     0.391366276  0.375989615  0.124159997
     0.367945702  0.133836415  0.384353796
     0.130879165  0.379607602  0.383232103
     0.999666586  0.002061733  0.512409760
     0.247251040  0.255013573  0.511683564
     0.245130703  0.000489991  0.747907740
     0.983353191  0.251250690  0.764392472
     0.112960694  0.129960367  0.635510553
     0.376362901  0.385245163  0.626302746
     0.372737258  0.120359176  0.876420025
     0.120953407  0.377633299  0.879502858
     0.000143077  0.496767299  0.008946643
     0.249316301  0.754860080  0.002612403
     0.264784219  0.502680813  0.249891308
     0.009513739  0.750233746  0.257710675
     0.125752745  0.620200749  0.127223807
     0.372767210  0.882324871  0.131444670
     0.384607345  0.628887075  0.372852934
     0.132497659  0.873205162  0.382115422
     0.003197233  0.503066181  0.497632952
     0.265134806  0.752869326  0.502269781
     0.246315456  0.496470072  0.752424268
     0.999272209  0.748865481  0.749669347
     0.132835464  0.624565915  0.614520987
     0.379991551  0.878550677  0.629541558
     0.370431813  0.625631023  0.875818980
     0.127627287  0.874167328  0.873307175
     0.496025757  0.002861337  0.002344263
     0.737406797  0.251219660  0.009465202
     0.752392401  0.005669108  0.248874714
     0.503935586  0.249503226  0.263413560
     0.612294817  0.121801223  0.133956053
     0.882811450  0.365170006  0.124298103
     0.883475048  0.123407569  0.375067803
     0.638626832  0.383635953  0.384644068
     0.505201395  0.004978472  0.492269898
     0.760955890  0.252874103  0.501110503
     0.739603128  0.004980423  0.746464322
     0.502306815  0.248283775  0.746757430
     0.623451853  0.128998166  0.611762997
     0.876877443  0.380247099  0.629707580
     0.860853113  0.121420862  0.881015978
     0.625140393  0.376230031  0.871942374
     0.512056751  0.498770363  0.997345260
     0.757284766  0.756810316  0.007540046
     0.757804952  0.503428853  0.244932578
     0.504983030  0.761805568  0.243580627
     0.630774063  0.627997248  0.117649098
     0.890302485  0.870028034  0.131764587
     0.877798317  0.626189326  0.375613661
     0.630982577  0.874845678  0.370512272
     0.512234950  0.505189539  0.501171998
     0.763381202  0.760303019  0.502933738
     0.742799736  0.510917567  0.751710213
     0.497024395  0.749160852  0.756498471
     0.625471781  0.642023747  0.630280362
     0.873439758  0.882425145  0.636337339
     0.879634327  0.628408596  0.880869939
     0.631810377  0.880793170  0.880631453

  ion indices of the primitive-cell ions
   primitive index   ion index
                 1           1
                 2           2
                 3           3
                 4           4
                 5           5
                 6           6
                 7           7
                 8           8
                 9           9
                10          10
                11          11
                12          12
                13          13
                14          14
                15          15
                16          16
                17          17
                18          18
                19          19
                20          20
                21          21
                22          22
                23          23
                24          24
                25          25
                26          26
                27          27
                28          28
                29          29
                30          30
                31          31
                32          32
                33          33
                34          34
                35          35
                36          36
                37          37
                38          38
                39          39
                40          40
                41          41
                42          42
                43          43
                44          44
                45          45
                46          46
                47          47
                48          48
                49          49
                50          50
                51          51
                52          52
                53          53
                54          54
                55          55
                56          56
                57          57
                58          58
                59          59
                60          60
                61          61
                62          62
                63          63
                64          64

----------------------------------------------------------------------------------------

 
 
 KPOINTS: K-Points                                

Automatic generation of k-mesh.
 Grid dimensions read from file:
 generate k-points for:    2    2    2

 Generating k-lattice:

  Cartesian coordinates                     Fractional coordinates (reciprocal lattice)
     0.045781067  0.000040098  0.000036172     0.500000000 -0.000000000  0.000000000
     0.000000000  0.045791251 -0.000008452     0.000000000  0.500000000  0.000000000
     0.000000000  0.000000000  0.045786850     0.000000000  0.000000000  0.500000000

  Length of vectors
     0.045781098  0.045791252  0.045786850

  Shift w.r.t. Gamma in fractional coordinates (k-lattice)
     0.500000000  0.500000000  0.500000000

 
 Subroutine IBZKPT returns following result:
 ===========================================
 
 Found      4 irreducible k-points:
 
 Following reciprocal coordinates:
            Coordinates               Weight
  0.250000  0.250000  0.250000      2.000000
 -0.250000  0.250000  0.250000      2.000000
  0.250000 -0.250000  0.250000      2.000000
 -0.250000 -0.250000  0.250000      2.000000
 
 Following cartesian coordinates:
            Coordinates               Weight
  0.022891  0.022916  0.022907      2.000000
 -0.022891  0.022876  0.022871      2.000000
  0.022891 -0.022876  0.022916      2.000000
 -0.022891 -0.022916  0.022880      2.000000
 


--------------------------------------------------------------------------------------------------------




 Dimension of arrays:
   k-points           NKPTS =      4   k-points in BZ     NKDIM =      4   number of bands    NBANDS=    161
   number of dos      NEDOS =    301   number of ions     NIONS =     64
   non local maximal  LDIM  =      4   non local SUM 2l+1 LMDIM =      8
   total plane-waves  NPLWV =  74088
   max r-space proj   IRMAX =    940   max aug-charges    IRDMAX=   2101
   dimension x,y,z NGX =    42 NGY =   42 NGZ =   42
   dimension x,y,z NGXF=    84 NGYF=   84 NGZF=   84
   support grid    NGXF=    84 NGYF=   84 NGZF=   84
   ions per type =              64
   NGX,Y,Z   is equivalent  to a cutoff of   6.39,  6.39,  6.39 a.u.
   NGXF,Y,Z  is equivalent  to a cutoff of  12.79, 12.79, 12.79 a.u.

 SYSTEM =  unknown system                          
 POSCAR =  Si                                      

 Startparameter for this run:
   NWRITE =      2    write-flag & timer
   PREC   = normal    normal or accurate (medium, high low for compatibility)
   ISTART =      1    job   : 0-new  1-cont  2-samecut
   ICHARG =      1    charge: 1-file 2-atom 10-const
   ISPIN  =      1    spin polarized calculation?
   LNONCOLLINEAR =      F non collinear calculations
   LSORBIT =      F    spin-orbit coupling
   INIWAV =      1    electr: 0-lowe 1-rand  2-diag
   LASPH  =      F    aspherical Exc in radial PAW
 Electronic Relaxation 1
   ENCUT  =  250.0 eV  18.37 Ry    4.29 a.u.  14.08 14.08 14.08*2*pi/ulx,y,z
   ENINI  =  250.0     initial cutoff
   ENAUG  =  322.1 eV  augmentation charge cutoff
   NELM   =     60;   NELMIN=  2; NELMDL=  0     # of ELM steps 
   EDIFF  = 0.1E-03   stopping-criterion for ELM
   LREAL  =      T    real-space projection
   NLSPLINE    = F    spline interpolate recip. space projectors
   LCOMPAT=      F    compatible to vasp.4.4
   GGA_COMPAT  = T    GGA compatible to vasp.4.4-vasp.4.6
   LMAXPAW     = -100 max onsite density
   LMAXMIX     =    2 max onsite mixed and CHGCAR
   VOSKOWN=      0    Vosko Wilk Nusair interpolation
   ROPT   =   -0.00050
 Ionic relaxation
   EDIFFG = 0.1E-02   stopping-criterion for IOM
   NSW    =      0    number of steps for IOM
   NBLOCK =      1;   KBLOCK =      1    inner block; outer block 
   IBRION =     -1    ionic relax: 0-MD 1-quasi-New 2-CG
   NFREE  =      0    steps in history (QN), initial steepest desc. (CG)
   ISIF   =      2    stress and relaxation
   IWAVPR =     10    prediction:  0-non 1-charg 2-wave 3-comb
   ISYM   =      2    0-nonsym 1-usesym 2-fastsym
   LCORR  =      T    Harris-Foulkes like correction to forces

   POTIM  = 0.5000    time-step for ionic-motion
   TEIN   =    0.0    initial temperature
   TEBEG  =    0.0;   TEEND  =   0.0 temperature during run
   SMASS  =  -3.00    Nose mass-parameter (am)
   estimated Nose-frequenzy (Omega)   =  0.10E-29 period in steps = 0.13E+47 mass=  -0.273E-26a.u.
   SCALEE = 1.0000    scale energy and forces
   NPACO  =    256;   APACO  = 10.0  distance and # of slots for P.C.
   PSTRESS=    0.0 pullay stress

  Mass of Ions in am
   POMASS =  28.09
  Ionic Valenz
   ZVAL   =   4.00
  Atomic Wigner-Seitz radii
   RWIGS  =  -1.00
  virtual crystal weights 
   VCA    =   1.00
   NELECT =     256.0000    total number of electrons
   NUPDOWN=      -1.0000    fix difference up-down

 DOS related values:
   EMIN   =  10.00;   EMAX   =-10.00  energy-range for DOS
   EFERMI =   0.00;   METHOD = LEGACY      
   ISMEAR =     0;   SIGMA  =   0.10  broadening in eV -4-tet -1-fermi 0-gaus

 Electronic relaxation 2 (details)
   IALGO  =     68    algorithm
   LDIAG  =      T    sub-space diagonalisation (order eigenvalues)
   LSUBROT=      F    optimize rotation matrix (better conditioning)
   TURBO    =      0    0=normal 1=particle mesh
   IRESTART =      0    0=no restart 2=restart with 2 vectors
   NREBOOT  =      0    no. of reboots
   NMIN     =      0    reboot dimension
   EREF     =   0.00    reference energy to select bands
   IMIX   =      4    mixing-type and parameters
     AMIX     =   0.40;   BMIX     =  1.00
     AMIX_MAG =   1.60;   BMIX_MAG =  1.00
     AMIN     =   0.10
     WC   =   100.;   INIMIX=   1;  MIXPRE=   1;  MAXMIX= -45

 Intra band minimization:
   WEIMIN = 0.0000     energy-eigenvalue tresh-hold
   EBREAK =  0.16E-06  absolut break condition
   DEPER  =   0.30     relativ break condition  

   TIME   =   0.40     timestep for ELM

  volume/ion in A,a.u.               =      20.35       137.31
  Fermi-wavevector in a.u.,A,eV,Ry     =   0.951892  1.798816 12.328228  0.906099
  Thomas-Fermi vector in A             =   2.080405
 
 Write flags
   LWAVE        =      T    write WAVECAR
   LDOWNSAMPLE  =      F    k-point downsampling of WAVECAR
   LCHARG       =      T    write CHGCAR
   LVTOT        =      F    write LOCPOT, total local potential
   LVHAR        =      F    write LOCPOT, Hartree potential only
   LELF         =      F    write electronic localiz. function (ELF)
   LORBIT       =      0    0 simple, 1 ext, 2 COOP (PROOUT), +10 PAW based schemes


 Dipole corrections
   LMONO  =      F    monopole corrections only (constant potential shift)
   LDIPOL =      F    correct potential (dipole corrections)
   IDIPOL =      0    1-x, 2-y, 3-z, 4-all directions 
   EPSILON=  1.0000000 bulk dielectric constant

 Exchange correlation treatment:
   GGA     =    --    GGA type
   LEXCH   =     8    internal setting for exchange type
   LIBXC   =     F    Libxc                    
   VOSKOWN =     0    Vosko Wilk Nusair interpolation
   LHFCALC =     F    Hartree Fock is set to
   LHFONE  =     F    Hartree Fock one center treatment
   AEXX    =    0.0000 exact exchange contribution

 Linear response parameters
   LEPSILON=     F    determine dielectric tensor
   LRPA    =     F    only Hartree local field effects (RPA)
   LNABLA  =     F    use nabla operator in PAW spheres
   LVEL    =     F    velocity operator in full k-point grid
   CSHIFT  =0.1000    complex shift for real part using Kramers Kronig
   OMEGAMAX=  -1.0    maximum frequency
   DEG_THRESHOLD= 0.2000000E-02 threshold for treating states as degnerate
   RTIME   =   -0.100 relaxation time in fs
  (WPLASMAI=    0.000 imaginary part of plasma frequency in eV, 0.658/RTIME)
   DFIELD  = 0.0000000 0.0000000 0.0000000 field for delta impulse in time
 
  Optional k-point grid parameters
   LKPOINTS_OPT  =     F    use optional k-point grid
   KPOINTS_OPT_MODE=     1    mode for optional k-point grid
 
 Orbital magnetization related:
   ORBITALMAG=     F  switch on orbital magnetization
   LCHIMAG   =     F  perturbation theory with respect to B field
   DQ        =  0.001000  dq finite difference perturbation B field
   LLRAUG    =     F  two centre corrections for induced B field
   LBONE     =     F  B-component reconstruction in AE one-centre
   LVGVCALC  =     T  calculate vGv susceptibility
   LVGVAPPL  =     F  apply vGv susceptibility instead of pGv for G=0

 Random number generation:
   RANDOM_GENERATOR = DEFAULT
   PCG_SEED         = not used


--------------------------------------------------------------------------------------------------------


 Static calculation
 charge density and potential will be updated during run
 non-spin polarized calculation
 RMM-DIIS sequential band-by-band and
  variant of blocked Davidson during initial phase
 perform sub-space diagonalisation
    before iterative eigenvector-optimisation
 modified Broyden-mixing scheme, WC =      100.0
 initial mixing is a Kerker type mixing with AMIX =  0.4000 and BMIX =      1.0000
 Hartree-type preconditioning will be used
 using additional bands           33
 real space projection scheme for non local part
 use partial core corrections
 calculate Harris-corrections to forces 
   (improved forces if not selfconsistent)
 use gradient corrections 
 use of overlap-Matrix (Vanderbilt PP)
 Gauss-broadening in eV      SIGMA  =   0.10


--------------------------------------------------------------------------------------------------------


  energy-cutoff  :      250.00
  volume of cell :     1302.27
      direct lattice vectors                 reciprocal lattice vectors
    10.921545470  0.000000000  0.000000000     0.091562133  0.000080196  0.000072345
    -0.009563710 10.919116470  0.000000000     0.000000000  0.091582501 -0.000016904
    -0.008629940  0.002015550 10.920165860     0.000000000  0.000000000  0.091573701

  length of vectors
    10.921545470 10.919120658 10.920169456     0.091562197  0.091582503  0.091573701


 
 old parameters found on file WAVECAR:
  energy-cutoff  :      250.00
  volume of cell :     1303.13
      direct lattice vectors                 reciprocal lattice vectors
    10.923982440  0.000000000  0.000000000     0.091541707  0.000080896  0.000072265
    -0.009651470 10.921556020  0.000000000     0.000000000  0.091562045 -0.000015838
    -0.008624090  0.001889290 10.922502720     0.000000000  0.000000000  0.091554109

  length of vectors

 
 k-points in units of 2pi/SCALE and weight: K-Points                                
   0.02289053  0.02291567  0.02290729       0.250
  -0.02289053  0.02287558  0.02287111       0.250
   0.02289053 -0.02287558  0.02291574       0.250
  -0.02289053 -0.02291567  0.02287956       0.250
 
 k-points in reciprocal lattice and weights: K-Points                                
   0.25000000  0.25000000  0.25000000       0.250
  -0.25000000  0.25000000  0.25000000       0.250
   0.25000000 -0.25000000  0.25000000       0.250
  -0.25000000 -0.25000000  0.25000000       0.250
 
 position of ions in fractional coordinates (direct lattice) 
   0.00418874  0.99300795  0.99507318
   0.25282061  0.24985594  0.00115645
   0.24528174  0.00838733  0.25315876
   0.01150268  0.24164827  0.25089475
   0.12237616  0.12692008  0.11532004
   0.39136628  0.37598962  0.12416000
   0.36794570  0.13383642  0.38435380
   0.13087916  0.37960760  0.38323210
   0.99966659  0.00206173  0.51240976
   0.24725104  0.25501357  0.51168356
   0.24513070  0.00048999  0.74790774
   0.98335319  0.25125069  0.76439247
   0.11296069  0.12996037  0.63551055
   0.37636290  0.38524516  0.62630275
   0.37273726  0.12035918  0.87642003
   0.12095341  0.37763330  0.87950286
   0.00014308  0.49676730  0.00894664
   0.24931630  0.75486008  0.00261240
   0.26478422  0.50268081  0.24989131
   0.00951374  0.75023375  0.25771067
   0.12575275  0.62020075  0.12722381
   0.37276721  0.88232487  0.13144467
   0.38460734  0.62888707  0.37285293
   0.13249766  0.87320516  0.38211542
   0.00319723  0.50306618  0.49763295
   0.26513481  0.75286933  0.50226978
   0.24631546  0.49647007  0.75242427
   0.99927221  0.74886548  0.74966935
   0.13283546  0.62456592  0.61452099
   0.37999155  0.87855068  0.62954156
   0.37043181  0.62563102  0.87581898
   0.12762729  0.87416733  0.87330718
   0.49602576  0.00286134  0.00234426
   0.73740680  0.25121966  0.00946520
   0.75239240  0.00566911  0.24887471
   0.50393559  0.24950323  0.26341356
   0.61229482  0.12180122  0.13395605
   0.88281145  0.36517001  0.12429810
   0.88347505  0.12340757  0.37506780
   0.63862683  0.38363595  0.38464407
   0.50520139  0.00497847  0.49226990
   0.76095589  0.25287410  0.50111050
   0.73960313  0.00498042  0.74646432
   0.50230681  0.24828377  0.74675743
   0.62345185  0.12899817  0.61176300
   0.87687744  0.38024710  0.62970758
   0.86085311  0.12142086  0.88101598
   0.62514039  0.37623003  0.87194237
   0.51205675  0.49877036  0.99734526
   0.75728477  0.75681032  0.00754005
   0.75780495  0.50342885  0.24493258
   0.50498303  0.76180557  0.24358063
   0.63077406  0.62799725  0.11764910
   0.89030249  0.87002803  0.13176459
   0.87779832  0.62618933  0.37561366
   0.63098258  0.87484568  0.37051227
   0.51223495  0.50518954  0.50117200
   0.76338120  0.76030302  0.50293374
   0.74279974  0.51091757  0.75171021
   0.49702440  0.74916085  0.75649847
   0.62547178  0.64202375  0.63028036
   0.87343976  0.88242514  0.63633734
   0.87963433  0.62840860  0.88086994
   0.63181038  0.88079317  0.88063145
 
 position of ions in cartesian coordinates  (Angst):
   0.02766322 10.84477504 10.86636413
   2.75879227  2.72820849  0.01262862
   2.67659077  0.09209254  2.76453566
   0.12115073  2.63909132  2.73981230
   1.33432779  1.38608761  1.25931401
   4.26965723  4.10572465  1.35584776
   4.01393879  1.46215009  4.19720720
   1.42246502  4.14575204  4.18495813
  10.91346229  0.02354509  5.59559957
   2.69350880  2.78555423  5.58766939
   2.67074703  0.00685771  8.16727657
  10.73073704  2.74497622  8.34729258
   1.22697803  1.42033329  6.93988065
   4.10137521  4.20779915  6.83932986
   4.06215238  1.31598233  9.57065204
   1.30979650  4.12519466  9.60431708
  -0.00326552  5.42427803  0.09769883
   2.71567751  8.24241040  0.02852787
   2.88488885  5.48933401  2.72885453
   0.09450569  8.19240908  2.81424331
   1.36638497  6.77230064  1.38930507
   4.06162138  9.63447296  1.43539760
   4.19127441  6.86764272  4.07161588
   1.43543049  9.53539904  4.17276379
   0.02581300  5.49404123  5.43423437
   2.88414706  8.22168021  5.48486932
   2.67890398  5.42253109  8.21659780
  10.89996533  8.17846040  8.18651361
   1.43949211  6.82094657  6.71067110
   4.13625989  9.59426604  6.87469823
   4.03214627  6.83310326  9.56408852
   1.37799035  9.54689506  9.53665920
   5.41732026  0.03124800  0.02559974
   8.05113759  2.74311580  0.10336158
   8.21508583  0.06240327  2.71775316
   5.49909600  2.72488571  2.87651977
   6.68488478  1.33023174  1.46282232
   9.63710033  3.98758436  1.35735590
   9.64449586  1.34825759  4.09580262
   6.96780355  4.18974092  4.20037702
   5.51328413  0.05535271  5.37566893
   8.30407139  2.76217180  5.47220981
   8.07111962  0.05588635  8.15151421
   5.47714773  2.71254458  8.15471499
   6.80254458  1.40977904  6.68055339
   9.56778595  4.15323157  6.87651122
   9.39308207  1.32758427  9.62084060
   6.81637626  4.10985697  9.52175534
   5.57907396  5.44814188 10.89117566
   8.26341702  8.26371518  0.08233855
   8.26947284  5.49749195  2.67470438
   5.50580735  8.31873467  2.65994085
   6.88200632  6.85741222  1.28474766
   9.71402126  9.50020301  1.43889114
   9.57768402  6.83819125  4.10176348
   6.87974064  9.55328864  4.04605546
   5.58524073  5.51723355  5.47288134
   8.32569090  8.30285090  5.49211984
   8.10114761  5.58028353  8.20880020
   5.41458124  8.18169936  8.26108878
   6.81953909  7.01160243  6.88276609
   9.52538122  9.63658550  6.94890928
   9.59335453  6.86344209  9.61924584
   6.88432231  9.61925817  9.61664153
 


--------------------------------------------------------------------------------------------------------


 k-point   1 :   0.2500 0.2500 0.2500  plane waves:   11684
 k-point   2 :  -0.2500 0.2500 0.2500  plane waves:   11681
 k-point   3 :   0.2500-0.2500 0.2500  plane waves:   11682
 k-point   4 :  -0.2500-0.2500 0.2500  plane waves:   11679

 maximum and minimum number of plane-waves per node :       433      400

 maximum number of plane-waves:     11684
 maximum index in each direction: 
   IXMAX=   14   IYMAX=   14   IZMAX=   13
   IXMIN=  -14   IYMIN=  -14   IZMIN=  -14


 real space projection operators:
  total allocation   :       3451.88 KBytes
  max/ min on nodes  :        170.94         75.94


 parallel 3D FFT for wavefunctions:
    minimum data exchange during FFTs selected (reduces bandwidth)
 parallel 3D FFT for charge:
    minimum data exchange during FFTs selected (reduces bandwidth)


 total amount of memory used by VASP MPI-rank0    37849. kBytes
=======================================================================

   base      :      30000. kBytes
   nonlr-proj:       1189. kBytes
   fftplans  :        841. kBytes
   grid      :       1174. kBytes
   one-center:          9. kBytes
   wavefun   :       4636. kBytes
 
     INWAV:  cpu time     18.9268: real time     18.9755
 Broyden mixing: mesh for mixing (old mesh)
   NGX = 29   NGY = 29   NGZ = 29
  (NGX  = 84   NGY  = 84   NGZ  = 84)
  gives a total of  24389 points

 initial charge density was supplied:
 number of electron     256.0000104 magnetization 
 keeping initial charge density in first step


--------------------------------------------------------------------------------------------------------


 Maximum index for non-local projection operator          112
 Maximum index for augmentation-charges          183 (set IRDMAX)


--------------------------------------------------------------------------------------------------------


 First call to EWALD:  gamma=   0.162
 Maximum number of real-space cells 3x 3x 3
 Maximum number of reciprocal cells 3x 3x 3

    FEWALD:  cpu time      0.0995: real time      0.0998


--------------------------------------- Ionic step        1  -------------------------------------------




--------------------------------------- Iteration      1(   1)  ---------------------------------------


    POTLOK:  cpu time      0.3387: real time      0.3401
    SETDIJ:  cpu time      0.1436: real time      0.1440
     EDDAV:  cpu time     34.9247: real time     35.0165
       DOS:  cpu time      0.0129: real time      0.0129
    CHARGE:  cpu time      2.4296: real time      2.4357
    MIXING:  cpu time      0.1039: real time      0.1042
    --------------------------------------------
      LOOP:  cpu time     37.9533: real time     38.0533

 eigenvalue-minimisations  :  1374
 total energy-change (2. order) :-0.3446530E+03  (-0.5091819E-01)
 number of electron     256.0000091 magnetization 
 augmentation part      -14.6469075 magnetization 

 Broyden mixing:
  rms(total) = 0.40761E-01    rms(broyden)= 0.40758E-01
  rms(prec ) = 0.42879E-01
  weight for this iteration     100.00

 Free energy of the ion-electron system (eV)
  ---------------------------------------------------
  alpha Z        PSCENC =       105.87992407
  Ewald energy   TEWEN  =     -7272.81776782
  -Hartree energ DENC   =      -483.84981344
  -exchange      EXHF   =         0.00000000
  -V(xc)+E(xc)   XCENC  =      -577.24570747
  PAW double counting   =     31021.03014629   -29901.91144728
  entropy T*S    EENTRO =        -0.00000000
  eigenvalues    EBANDS =       168.30968951
  atomic energy  EATOM  =      6595.95197522
  Solvation  Ediel_sol  =         0.00000000
  ---------------------------------------------------
  free energy    TOTEN  =      -344.65300091 eV

  energy without entropy =     -344.65300091  energy(sigma->0) =     -344.65300091


--------------------------------------------------------------------------------------------------------




--------------------------------------- Iteration      1(   2)  ---------------------------------------


    POTLOK:  cpu time      0.0481: real time      0.0494
    SETDIJ:  cpu time      0.0401: real time      0.0404
    EDDIAG:  cpu time      7.2783: real time      7.2970
  RMM-DIIS:  cpu time     18.0467: real time     18.0924
    ORTHCH:  cpu time      0.3976: real time      0.3985
       DOS:  cpu time      0.0550: real time      0.0552
    CHARGE:  cpu time      1.6624: real time      1.6667
    MIXING:  cpu time      0.0004: real time      0.0004
    --------------------------------------------
      LOOP:  cpu time     27.5286: real time     27.6001

 eigenvalue-minimisations  :  1300
 total energy-change (2. order) :-0.2607265E-02  (-0.2916593E-02)
 number of electron     256.0000091 magnetization 
 augmentation part      -14.6466239 magnetization 

 Broyden mixing:
  rms(total) = 0.14901E-01    rms(broyden)= 0.14900E-01
  rms(prec ) = 0.17660E-01
  weight for this iteration     100.00

 eigenvalues of (default mixing * dielectric matrix)
  average eigenvalue GAMMA=   1.3343
  1.3343

 Free energy of the ion-electron system (eV)
  ---------------------------------------------------
  alpha Z        PSCENC =       105.87992407
  Ewald energy   TEWEN  =     -7272.81776782
  -Hartree energ DENC   =      -483.71291326
  -exchange      EXHF   =         0.00000000
  -V(xc)+E(xc)   XCENC  =      -577.24892522
  PAW double counting   =     31051.76926726   -29932.65410829
  entropy T*S    EENTRO =        -0.00000000
  eigenvalues    EBANDS =       168.17693987
  atomic energy  EATOM  =      6595.95197522
  Solvation  Ediel_sol  =         0.00000000
  ---------------------------------------------------
  free energy    TOTEN  =      -344.65560817 eV

  energy without entropy =     -344.65560817  energy(sigma->0) =     -344.65560817


--------------------------------------------------------------------------------------------------------




--------------------------------------- Iteration      1(   3)  ---------------------------------------


    POTLOK:  cpu time      0.3891: real time      0.3901
    SETDIJ:  cpu time      0.0019: real time      0.0019
    EDDIAG:  cpu time      5.8347: real time      5.8497
  RMM-DIIS:  cpu time     26.2369: real time     26.3031
    ORTHCH:  cpu time      0.1755: real time      0.1759
       DOS:  cpu time      0.1546: real time      0.1549
    CHARGE:  cpu time      1.8133: real time      1.8179
    MIXING:  cpu time      0.0003: real time      0.0003
    --------------------------------------------
      LOOP:  cpu time     34.6062: real time     34.6939

 eigenvalue-minimisations  :  1507
 total energy-change (2. order) :-0.2503234E-03  (-0.4576319E-03)
 number of electron     256.0000091 magnetization 
 augmentation part      -14.6475563 magnetization 

 Broyden mixing:
  rms(total) = 0.66211E-02    rms(broyden)= 0.66206E-02
  rms(prec ) = 0.79408E-02
  weight for this iteration     100.00

 eigenvalues of (default mixing * dielectric matrix)
  average eigenvalue GAMMA=   1.6273
  1.6273  1.6273

 Free energy of the ion-electron system (eV)
  ---------------------------------------------------
  alpha Z        PSCENC =       105.87992407
  Ewald energy   TEWEN  =     -7272.81776782
  -Hartree energ DENC   =      -483.57688357
  -exchange      EXHF   =         0.00000000
  -V(xc)+E(xc)   XCENC  =      -577.25346771
  PAW double counting   =     31071.76106852   -29952.64879181
  entropy T*S    EENTRO =        -0.00000000
  eigenvalues    EBANDS =       168.04808460
  atomic energy  EATOM  =      6595.95197522
  Solvation  Ediel_sol  =         0.00000000
  ---------------------------------------------------
  free energy    TOTEN  =      -344.65585850 eV

  energy without entropy =     -344.65585850  energy(sigma->0) =     -344.65585850


--------------------------------------------------------------------------------------------------------




--------------------------------------- Iteration      1(   4)  ---------------------------------------


    POTLOK:  cpu time      0.0451: real time      0.0464
    SETDIJ:  cpu time      0.1091: real time      0.1094
    EDDIAG:  cpu time      2.7660: real time      2.7732
  RMM-DIIS:  cpu time     22.6354: real time     23.3775
    ORTHCH:  cpu time      0.3816: real time      0.3825
       DOS:  cpu time      0.0887: real time      0.0889
    --------------------------------------------
      LOOP:  cpu time     26.0258: real time     26.7778

 eigenvalue-minimisations  :  1558
 total energy-change (2. order) :-0.5106030E-04  (-0.8721736E-04)
 number of electron     256.0000091 magnetization 
 augmentation part      -14.6475563 magnetization 

 Free energy of the ion-electron system (eV)
  ---------------------------------------------------
  alpha Z        PSCENC =       105.87992407
  Ewald energy   TEWEN  =     -7272.81776782
  -Hartree energ DENC   =      -483.51360274
  -exchange      EXHF   =         0.00000000
  -V(xc)+E(xc)   XCENC  =      -577.25406882
  PAW double counting   =     31075.53846179   -29956.43033466
  entropy T*S    EENTRO =        -0.00000000
  eigenvalues    EBANDS =       167.98950340
  atomic energy  EATOM  =      6595.95197522
  Solvation  Ediel_sol  =         0.00000000
  ---------------------------------------------------
  free energy    TOTEN  =      -344.65590956 eV

  energy without entropy =     -344.65590956  energy(sigma->0) =     -344.65590956


--------------------------------------------------------------------------------------------------------




 average (electrostatic) potential at core
  the test charge radii are     0.9892
  (the norm of the test charge is              1.0000)
       1 -83.4825       2 -83.4619       3 -83.4553       4 -83.4464       5 -83.4260
       6 -83.4476       7 -83.4469       8 -83.4502       9 -83.4473      10 -83.4173
      11 -83.4186      12 -83.4475      13 -83.4639      14 -83.4308      15 -83.4373
      16 -83.4401      17 -83.4311      18 -83.4701      19 -83.4268      20 -83.4055
      21 -83.4383      22 -83.4398      23 -83.3797      24 -83.4776      25 -83.4364
      26 -83.4124      27 -83.4524      28 -83.4659      29 -83.4692      30 -83.4493
      31 -83.4660      32 -83.3657      33 -83.4216      34 -83.4775      35 -83.4210
      36 -83.4152      37 -83.4469      38 -83.4771      39 -83.4448      40 -83.4455
      41 -83.4722      42 -83.4017      43 -83.4369      44 -83.4692      45 -83.4704
      46 -83.4368      47 -83.4735      48 -83.4007      49 -83.4241      50 -83.4109
      51 -83.4909      52 -83.4436      53 -83.4832      54 -83.4353      55 -83.4496
      56 -83.4449      57 -83.4665      58 -83.5156      59 -83.4128      60 -83.4315
      61 -83.4096      62 -83.4256      63 -83.4149      64 -83.5124
 
 
 
 E-fermi :   5.8977     XC(G=0):  -9.3517     alpha+bet :-11.7872

 Fermi energy:         5.8977178401

 k-point     1 :       0.2500    0.2500    0.2500
  band No.  band energies     occupation 
      1      -5.9945      2.00000
      2      -5.4775      2.00000
      3      -5.4681      2.00000
      4      -5.4582      2.00000
      5      -4.9752      2.00000
      6      -4.9636      2.00000
      7      -4.9554      2.00000
      8      -4.5460      2.00000
      9      -4.4461      2.00000
     10      -4.4273      2.00000
     11      -4.4115      2.00000
     12      -4.0640      2.00000
     13      -4.0486      2.00000
     14      -4.0190      2.00000
     15      -4.0012      2.00000
     16      -3.9823      2.00000
     17      -3.9577      2.00000
     18      -3.8488      2.00000
     19      -3.7854      2.00000
     20      -3.7609      2.00000
     21      -3.3367      2.00000
     22      -3.2988      2.00000
     23      -3.2773      2.00000
     24      -2.9896      2.00000
     25      -2.9540      2.00000
     26      -2.9168      2.00000
     27      -2.8044      2.00000
     28      -2.7843      2.00000
     29      -2.7584      2.00000
     30      -2.7390      2.00000
     31      -2.7277      2.00000
     32      -2.6949      2.00000
     33      -1.2947      2.00000
     34      -1.2818      2.00000
     35      -1.2529      2.00000
     36      -1.2344      2.00000
     37      -1.2090      2.00000
     38      -1.1974      2.00000
     39      -1.1591      2.00000
     40      -1.1302      2.00000
     41      -1.0917      2.00000
     42      -1.0171      2.00000
     43      -1.0063      2.00000
     44      -0.9696      2.00000
     45      -0.9400      2.00000
     46      -0.9032      2.00000
     47      -0.8353      2.00000
     48      -0.2354      2.00000
     49      -0.1898      2.00000
     50      -0.1552      2.00000
     51      -0.1321      2.00000
     52      -0.1156      2.00000
     53      -0.0934      2.00000
     54      -0.0473      2.00000
     55       0.7018      2.00000
     56       0.7335      2.00000
     57       0.7965      2.00000
     58       1.0522      2.00000
     59       1.0624      2.00000
     60       1.0982      2.00000
     61       1.6322      2.00000
     62       1.6454      2.00000
     63       1.6556      2.00000
     64       1.6680      2.00000
     65       1.6831      2.00000
     66       1.6958      2.00000
     67       1.7234      2.00000
     68       1.7580      2.00000
     69       1.7903      2.00000
     70       2.2409      2.00000
     71       2.2625      2.00000
     72       2.2805      2.00000
     73       2.3278      2.00000
     74       2.3418      2.00000
     75       2.3728      2.00000
     76       2.3960      2.00000
     77       2.4140      2.00000
     78       2.4379      2.00000
     79       2.4765      2.00000
     80       2.5009      2.00000
     81       2.5265      2.00000
     82       2.7443      2.00000
     83       2.7523      2.00000
     84       2.7583      2.00000
     85       2.7649      2.00000
     86       2.7830      2.00000
     87       2.8065      2.00000
     88       2.9943      2.00000
     89       3.0137      2.00000
     90       3.0424      2.00000
     91       3.0525      2.00000
     92       3.0743      2.00000
     93       3.0859      2.00000
     94       3.3191      2.00000
     95       3.3645      2.00000
     96       3.3856      2.00000
     97       3.4057      2.00000
     98       3.4457      2.00000
     99       3.4594      2.00000
    100       3.4920      2.00000
    101       3.5126      2.00000
    102       3.5216      2.00000
    103       3.7057      2.00000
    104       3.7323      2.00000
    105       3.7663      2.00000
    106       3.7780      2.00000
    107       3.8040      2.00000
    108       3.8341      2.00000
    109       3.8444      2.00000
    110       3.8605      2.00000
    111       3.8872      2.00000
    112       4.0806      2.00000
    113       4.1473      2.00000
    114       4.1643      2.00000
    115       4.2118      2.00000
    116       4.3776      2.00000
    117       4.3958      2.00000
    118       4.4041      2.00000
    119       4.4167      2.00000
    120       4.4537      2.00000
    121       4.5192      2.00000
    122       4.5969      2.00000
    123       4.6344      2.00000
    124       4.9057      2.00000
    125       4.9637      2.00000
    126       4.9889      2.00000
    127       5.4039      2.00000
    128       5.4295      2.00000
    129       6.5536      0.00000
    130       6.5617      0.00000
    131       6.6149      0.00000
    132       6.9854      0.00000
    133       7.0302      0.00000
    134       7.0442      0.00000
    135       7.2328      0.00000
    136       7.4520      0.00000
    137       7.4861      0.00000
    138       7.5062      0.00000
    139       7.5769      0.00000
    140       7.6058      0.00000
    141       7.6632      0.00000
    142       7.7413      0.00000
    143       7.7676      0.00000
    144       7.7863      0.00000
    145       7.8233      0.00000
    146       7.8341      0.00000
    147       7.8678      0.00000
    148       7.9937      0.00000
    149       7.9998      0.00000
    150       8.0454      0.00000
    151       8.0749      0.00000
    152       8.0874      0.00000
    153       8.0982      0.00000
    154       8.1402      0.00000
    155       8.2783      0.00000
    156       8.3206      0.00000
    157       8.3362      0.00000
    158       8.4011      0.00000
    159       8.4252      0.00000
    160       8.4654      0.00000
    161       8.5270      0.00000

 k-point     2 :      -0.2500    0.2500    0.2500
  band No.  band energies     occupation 
      1      -5.9955      2.00000
      2      -5.4720      2.00000
      3      -5.4642      2.00000
      4      -5.4613      2.00000
      5      -4.9752      2.00000
      6      -4.9680      2.00000
      7      -4.9614      2.00000
      8      -4.5545      2.00000
      9      -4.4383      2.00000
     10      -4.4283      2.00000
     11      -4.4070      2.00000
     12      -4.0898      2.00000
     13      -4.0443      2.00000
     14      -4.0295      2.00000
     15      -3.9826      2.00000
     16      -3.9652      2.00000
     17      -3.9469      2.00000
     18      -3.8530      2.00000
     19      -3.7833      2.00000
     20      -3.7497      2.00000
     21      -3.3380      2.00000
     22      -3.3129      2.00000
     23      -3.2967      2.00000
     24      -2.9947      2.00000
     25      -2.9534      2.00000
     26      -2.9004      2.00000
     27      -2.8198      2.00000
     28      -2.7875      2.00000
     29      -2.7542      2.00000
     30      -2.7332      2.00000
     31      -2.7128      2.00000
     32      -2.6968      2.00000
     33      -1.3327      2.00000
     34      -1.2820      2.00000
     35      -1.2599      2.00000
     36      -1.2344      2.00000
     37      -1.2102      2.00000
     38      -1.1895      2.00000
     39      -1.1756      2.00000
     40      -1.1003      2.00000
     41      -1.0789      2.00000
     42      -1.0136      2.00000
     43      -0.9941      2.00000
     44      -0.9692      2.00000
     45      -0.9359      2.00000
     46      -0.8982      2.00000
     47      -0.8372      2.00000
     48      -0.2441      2.00000
     49      -0.2081      2.00000
     50      -0.1638      2.00000
     51      -0.1481      2.00000
     52      -0.1163      2.00000
     53      -0.0883      2.00000
     54      -0.0132      2.00000
     55       0.7023      2.00000
     56       0.7584      2.00000
     57       0.7722      2.00000
     58       1.0531      2.00000
     59       1.0758      2.00000
     60       1.0968      2.00000
     61       1.6374      2.00000
     62       1.6418      2.00000
     63       1.6561      2.00000
     64       1.6729      2.00000
     65       1.6777      2.00000
     66       1.7006      2.00000
     67       1.7223      2.00000
     68       1.7513      2.00000
     69       1.7804      2.00000
     70       2.2436      2.00000
     71       2.2646      2.00000
     72       2.2900      2.00000
     73       2.3241      2.00000
     74       2.3495      2.00000
     75       2.3798      2.00000
     76       2.3853      2.00000
     77       2.3999      2.00000
     78       2.4301      2.00000
     79       2.4718      2.00000
     80       2.4954      2.00000
     81       2.5336      2.00000
     82       2.7157      2.00000
     83       2.7322      2.00000
     84       2.7651      2.00000
     85       2.7817      2.00000
     86       2.7977      2.00000
     87       2.8100      2.00000
     88       3.0061      2.00000
     89       3.0186      2.00000
     90       3.0300      2.00000
     91       3.0418      2.00000
     92       3.0528      2.00000
     93       3.0871      2.00000
     94       3.3245      2.00000
     95       3.3544      2.00000
     96       3.3842      2.00000
     97       3.4173      2.00000
     98       3.4412      2.00000
     99       3.4758      2.00000
    100       3.4865      2.00000
    101       3.5132      2.00000
    102       3.5365      2.00000
    103       3.7305      2.00000
    104       3.7509      2.00000
    105       3.7608      2.00000
    106       3.7953      2.00000
    107       3.8055      2.00000
    108       3.8195      2.00000
    109       3.8410      2.00000
    110       3.8686      2.00000
    111       3.8766      2.00000
    112       4.0743      2.00000
    113       4.1413      2.00000
    114       4.1573      2.00000
    115       4.1785      2.00000
    116       4.3529      2.00000
    117       4.3912      2.00000
    118       4.4140      2.00000
    119       4.4482      2.00000
    120       4.4933      2.00000
    121       4.5228      2.00000
    122       4.6086      2.00000
    123       4.6278      2.00000
    124       4.9003      2.00000
    125       4.9464      2.00000
    126       4.9867      2.00000
    127       5.4007      2.00000
    128       5.4277      2.00000
    129       6.5533      0.00000
    130       6.5727      0.00000
    131       6.5983      0.00000
    132       6.9817      0.00000
    133       7.0289      0.00000
    134       7.0718      0.00000
    135       7.2488      0.00000
    136       7.4544      0.00000
    137       7.4846      0.00000
    138       7.5204      0.00000
    139       7.5780      0.00000
    140       7.5928      0.00000
    141       7.6585      0.00000
    142       7.7536      0.00000
    143       7.7783      0.00000
    144       7.7833      0.00000
    145       7.8230      0.00000
    146       7.8370      0.00000
    147       7.8543      0.00000
    148       7.9845      0.00000
    149       8.0274      0.00000
    150       8.0417      0.00000
    151       8.0551      0.00000
    152       8.0810      0.00000
    153       8.0970      0.00000
    154       8.1399      0.00000
    155       8.2809      0.00000
    156       8.3235      0.00000
    157       8.3472      0.00000
    158       8.4093      0.00000
    159       8.4284      0.00000
    160       8.4621      0.00000
    161       8.5189      0.00000

 k-point     3 :       0.2500   -0.2500    0.2500
  band No.  band energies     occupation 
      1      -5.9949      2.00000
      2      -5.4786      2.00000
      3      -5.4664      2.00000
      4      -5.4569      2.00000
      5      -4.9720      2.00000
      6      -4.9634      2.00000
      7      -4.9576      2.00000
      8      -4.5514      2.00000
      9      -4.4470      2.00000
     10      -4.4290      2.00000
     11      -4.4186      2.00000
     12      -4.0650      2.00000
     13      -4.0517      2.00000
     14      -4.0244      2.00000
     15      -3.9982      2.00000
     16      -3.9786      2.00000
     17      -3.9543      2.00000
     18      -3.8210      2.00000
     19      -3.7769      2.00000
     20      -3.7608      2.00000
     21      -3.3341      2.00000
     22      -3.3166      2.00000
     23      -3.2991      2.00000
     24      -2.9952      2.00000
     25      -2.9719      2.00000
     26      -2.8976      2.00000
     27      -2.8106      2.00000
     28      -2.7675      2.00000
     29      -2.7549      2.00000
     30      -2.7451      2.00000
     31      -2.7100      2.00000
     32      -2.7002      2.00000
     33      -1.3088      2.00000
     34      -1.2797      2.00000
     35      -1.2665      2.00000
     36      -1.2479      2.00000
     37      -1.2242      2.00000
     38      -1.1863      2.00000
     39      -1.1628      2.00000
     40      -1.1380      2.00000
     41      -1.0668      2.00000
     42      -1.0063      2.00000
     43      -0.9858      2.00000
     44      -0.9622      2.00000
     45      -0.9369      2.00000
     46      -0.8887      2.00000
     47      -0.8594      2.00000
     48      -0.2266      2.00000
     49      -0.1990      2.00000
     50      -0.1628      2.00000
     51      -0.1395      2.00000
     52      -0.1054      2.00000
     53      -0.0891      2.00000
     54      -0.0667      2.00000
     55       0.7129      2.00000
     56       0.7667      2.00000
     57       0.7840      2.00000
     58       1.0619      2.00000
     59       1.0780      2.00000
     60       1.0838      2.00000
     61       1.6266      2.00000
     62       1.6482      2.00000
     63       1.6558      2.00000
     64       1.6638      2.00000
     65       1.6789      2.00000
     66       1.6941      2.00000
     67       1.7365      2.00000
     68       1.7609      2.00000
     69       1.7775      2.00000
     70       2.2441      2.00000
     71       2.2765      2.00000
     72       2.2896      2.00000
     73       2.3193      2.00000
     74       2.3429      2.00000
     75       2.3551      2.00000
     76       2.3734      2.00000
     77       2.4002      2.00000
     78       2.4373      2.00000
     79       2.4639      2.00000
     80       2.4907      2.00000
     81       2.4992      2.00000
     82       2.7263      2.00000
     83       2.7428      2.00000
     84       2.7639      2.00000
     85       2.7754      2.00000
     86       2.7855      2.00000
     87       2.8069      2.00000
     88       2.9968      2.00000
     89       3.0182      2.00000
     90       3.0427      2.00000
     91       3.0516      2.00000
     92       3.0567      2.00000
     93       3.1011      2.00000
     94       3.3454      2.00000
     95       3.3700      2.00000
     96       3.3910      2.00000
     97       3.4160      2.00000
     98       3.4317      2.00000
     99       3.4665      2.00000
    100       3.4976      2.00000
    101       3.5146      2.00000
    102       3.5271      2.00000
    103       3.7312      2.00000
    104       3.7496      2.00000
    105       3.7894      2.00000
    106       3.7996      2.00000
    107       3.8181      2.00000
    108       3.8324      2.00000
    109       3.8456      2.00000
    110       3.8525      2.00000
    111       3.8770      2.00000
    112       4.0735      2.00000
    113       4.1194      2.00000
    114       4.1494      2.00000
    115       4.1913      2.00000
    116       4.3708      2.00000
    117       4.3871      2.00000
    118       4.4059      2.00000
    119       4.4419      2.00000
    120       4.4909      2.00000
    121       4.5209      2.00000
    122       4.6285      2.00000
    123       4.6367      2.00000
    124       4.9054      2.00000
    125       4.9180      2.00000
    126       4.9602      2.00000
    127       5.4047      2.00000
    128       5.4200      2.00000
    129       6.5560      0.00000
    130       6.5807      0.00000
    131       6.5937      0.00000
    132       6.9814      0.00000
    133       7.0171      0.00000
    134       7.0548      0.00000
    135       7.2363      0.00000
    136       7.4671      0.00000
    137       7.4851      0.00000
    138       7.5225      0.00000
    139       7.5699      0.00000
    140       7.6034      0.00000
    141       7.6383      0.00000
    142       7.7417      0.00000
    143       7.7599      0.00000
    144       7.7890      0.00000
    145       7.8110      0.00000
    146       7.8405      0.00000
    147       7.8760      0.00000
    148       7.9703      0.00000
    149       7.9998      0.00000
    150       8.0416      0.00000
    151       8.0633      0.00000
    152       8.0861      0.00000
    153       8.1057      0.00000
    154       8.1302      0.00000
    155       8.2848      0.00000
    156       8.3135      0.00000
    157       8.3368      0.00000
    158       8.4181      0.00000
    159       8.4500      0.00000
    160       8.4854      0.00000
    161       8.5337      0.00000

 k-point     4 :      -0.2500   -0.2500    0.2500
  band No.  band energies     occupation 
      1      -5.9951      2.00000
      2      -5.4742      2.00000
      3      -5.4662      2.00000
      4      -5.4598      2.00000
      5      -4.9763      2.00000
      6      -4.9650      2.00000
      7      -4.9608      2.00000
      8      -4.5340      2.00000
      9      -4.4428      2.00000
     10      -4.4309      2.00000
     11      -4.4196      2.00000
     12      -4.0671      2.00000
     13      -4.0596      2.00000
     14      -4.0480      2.00000
     15      -4.0012      2.00000
     16      -3.9611      2.00000
     17      -3.9357      2.00000
     18      -3.8374      2.00000
     19      -3.7855      2.00000
     20      -3.7555      2.00000
     21      -3.3390      2.00000
     22      -3.3100      2.00000
     23      -3.2857      2.00000
     24      -2.9926      2.00000
     25      -2.9599      2.00000
     26      -2.8959      2.00000
     27      -2.8254      2.00000
     28      -2.7785      2.00000
     29      -2.7621      2.00000
     30      -2.7441      2.00000
     31      -2.7181      2.00000
     32      -2.6852      2.00000
     33      -1.3139      2.00000
     34      -1.2868      2.00000
     35      -1.2626      2.00000
     36      -1.2476      2.00000
     37      -1.2096      2.00000
     38      -1.1858      2.00000
     39      -1.1622      2.00000
     40      -1.1263      2.00000
     41      -1.0734      2.00000
     42      -1.0303      2.00000
     43      -0.9816      2.00000
     44      -0.9612      2.00000
     45      -0.9229      2.00000
     46      -0.8968      2.00000
     47      -0.8479      2.00000
     48      -0.2288      2.00000
     49      -0.2076      2.00000
     50      -0.1634      2.00000
     51      -0.1475      2.00000
     52      -0.1249      2.00000
     53      -0.0747      2.00000
     54      -0.0433      2.00000
     55       0.7239      2.00000
     56       0.7433      2.00000
     57       0.7724      2.00000
     58       1.0534      2.00000
     59       1.0731      2.00000
     60       1.0975      2.00000
     61       1.6379      2.00000
     62       1.6453      2.00000
     63       1.6598      2.00000
     64       1.6670      2.00000
     65       1.6811      2.00000
     66       1.6942      2.00000
     67       1.7270      2.00000
     68       1.7562      2.00000
     69       1.7666      2.00000
     70       2.2365      2.00000
     71       2.2677      2.00000
     72       2.2928      2.00000
     73       2.3469      2.00000
     74       2.3573      2.00000
     75       2.3692      2.00000
     76       2.3866      2.00000
     77       2.4077      2.00000
     78       2.4275      2.00000
     79       2.4710      2.00000
     80       2.4918      2.00000
     81       2.5077      2.00000
     82       2.7346      2.00000
     83       2.7440      2.00000
     84       2.7596      2.00000
     85       2.7694      2.00000
     86       2.7945      2.00000
     87       2.8000      2.00000
     88       2.9818      2.00000
     89       3.0140      2.00000
     90       3.0313      2.00000
     91       3.0466      2.00000
     92       3.0781      2.00000
     93       3.0866      2.00000
     94       3.3352      2.00000
     95       3.3595      2.00000
     96       3.3956      2.00000
     97       3.4113      2.00000
     98       3.4503      2.00000
     99       3.4554      2.00000
    100       3.4984      2.00000
    101       3.5269      2.00000
    102       3.5394      2.00000
    103       3.7320      2.00000
    104       3.7454      2.00000
    105       3.7663      2.00000
    106       3.7905      2.00000
    107       3.8004      2.00000
    108       3.8165      2.00000
    109       3.8354      2.00000
    110       3.8603      2.00000
    111       3.8764      2.00000
    112       4.0855      2.00000
    113       4.1290      2.00000
    114       4.1602      2.00000
    115       4.1820      2.00000
    116       4.3722      2.00000
    117       4.3917      2.00000
    118       4.4098      2.00000
    119       4.4415      2.00000
    120       4.4853      2.00000
    121       4.5110      2.00000
    122       4.6168      2.00000
    123       4.6322      2.00000
    124       4.9096      2.00000
    125       4.9331      2.00000
    126       4.9836      2.00000
    127       5.3981      2.00000
    128       5.4303      2.00000
    129       6.5393      0.00000
    130       6.5636      0.00000
    131       6.6101      0.00000
    132       6.9811      0.00000
    133       7.0257      0.00000
    134       7.0488      0.00000
    135       7.2277      0.00000
    136       7.4421      0.00000
    137       7.4926      0.00000
    138       7.5123      0.00000
    139       7.5747      0.00000
    140       7.6226      0.00000
    141       7.6508      0.00000
    142       7.7500      0.00000
    143       7.7820      0.00000
    144       7.7961      0.00000
    145       7.8095      0.00000
    146       7.8362      0.00000
    147       7.8656      0.00000
    148       7.9902      0.00000
    149       8.0127      0.00000
    150       8.0363      0.00000
    151       8.0457      0.00000
    152       8.0730      0.00000
    153       8.1143      0.00000
    154       8.1373      0.00000
    155       8.3012      0.00000
    156       8.3280      0.00000
    157       8.3397      0.00000
    158       8.3990      0.00000
    159       8.4365      0.00000
    160       8.4924      0.00000
    161       8.5110      0.00000


--------------------------------------------------------------------------------------------------------


 soft charge-density along one line, spin component           1
         0         1         2         3         4         5         6         7         8         9
 total charge-density along one line
 
 pseudopotential strength for first ion, spin component:           1
 18.440  25.727   0.000  -0.001   0.001   0.001  -0.002   0.001
 25.727  35.899   0.001  -0.001   0.001   0.001  -0.002   0.001
  0.000   0.001   4.182   0.000   0.000   7.793   0.000   0.000
 -0.001  -0.001   0.000   4.182   0.000   0.000   7.793   0.000
  0.001   0.001   0.000   0.000   4.182   0.000   0.000   7.793
  0.001   0.001   7.793   0.000   0.000  14.533   0.001   0.000
 -0.002  -0.002   0.000   7.793   0.000   0.001  14.532   0.000
  0.001   0.001   0.000   0.000   7.793   0.000   0.000  14.533
 total augmentation occupancy for first ion, spin component:           1
  5.956  -2.292  -0.107   0.086   0.197   0.039  -0.031  -0.070
 -2.292   0.996   0.031  -0.063  -0.098  -0.014   0.018   0.032
 -0.107   0.031   3.311   0.141  -0.033  -0.805  -0.044   0.010
  0.086  -0.063   0.141   3.286  -0.173  -0.044  -0.793   0.049
  0.197  -0.098  -0.033  -0.173   3.275   0.010   0.048  -0.792
  0.039  -0.014  -0.805  -0.044   0.010   0.203   0.013  -0.003
 -0.031   0.018  -0.044  -0.793   0.048   0.013   0.199  -0.014
 -0.070   0.032   0.010   0.049  -0.792  -0.003  -0.014   0.199


------------------------ aborting loop because EDIFF is reached ----------------------------------------


    CHARGE:  cpu time      2.9155: real time      2.9227
    FORLOC:  cpu time      0.0377: real time      0.0378
    FORNL :  cpu time     12.1049: real time     12.1353
    STRESS:  cpu time     32.6278: real time     32.7090
    FORCOR:  cpu time      0.1218: real time      0.1223
    FORHAR:  cpu time      0.1445: real time      0.1449
    MIXING:  cpu time      0.0121: real time      0.0121
    OFIELD:  cpu time      0.0000: real time      0.0000

  FORCE on cell =-STRESS in cart. coord.  units (eV):
  Direction    XX          YY          ZZ          XY          YZ          ZX
  --------------------------------------------------------------------------------------
  Alpha Z   105.87992   105.87992   105.87992
  Ewald   -2425.47652 -2424.98779 -2422.39836     7.93258     6.96463     2.38707
  Hartree   161.04269   160.93153   161.49286     0.99191     0.36742     0.73105
  E(xc)    -808.97773  -808.98297  -809.02696    -0.09674    -0.08644    -0.02211
  Local    -944.52409  -944.48690  -947.96083    -8.75883    -6.70134    -3.17107
  n-local  2485.69866  2485.63786  2486.56364     1.99352     1.89705     0.39633
  augment  -372.13116  -372.14508  -372.19363    -0.13950    -0.08719    -0.04720
  Kinetic  1800.15388  1800.75150  1800.23669    -0.28825    -0.80003     0.25523
  Fock        0.00000     0.00000     0.00000     0.00000     0.00000     0.00000
  -------------------------------------------------------------------------------------
  Total       1.66566     2.59808     2.59334     1.63469     1.55410     0.52930
  in kB       2.04926     3.19640     3.19058     2.01116     1.91200     0.65119
  external pressure =        2.81 kB  Pullay stress =        0.00 kB


 VOLUME and BASIS-vectors are now :
 -----------------------------------------------------------------------------
  energy-cutoff  :      250.00
  volume of cell :     1302.27
      direct lattice vectors                 reciprocal lattice vectors
    10.921545470  0.000000000  0.000000000     0.091562133  0.000080196  0.000072345
    -0.009563710 10.919116470  0.000000000     0.000000000  0.091582501 -0.000016904
    -0.008629940  0.002015550 10.920165860     0.000000000  0.000000000  0.091573701

  length of vectors
    10.921545470 10.919120658 10.920169456     0.091562197  0.091582503  0.091573701


 FORCES acting on ions
    electron-ion (+dipol)            ewald-force                    non-local-force                 convergence-correction
 -----------------------------------------------------------------------------------------------
   0.424E+01 -.375E+01 0.119E+01   -.371E+01 0.300E+01 -.986E+00   -.133E+01 0.139E+01 -.598E-01   -.388E-03 -.393E-03 -.118E-02
   -.394E+01 -.735E+01 -.927E+00   0.355E+01 0.674E+01 0.588E+00   0.763E+00 0.130E+01 0.184E+00   -.271E-02 -.335E-02 -.208E-02
   0.134E+01 -.237E+01 -.183E+01   -.139E+01 0.219E+01 0.175E+01   0.118E+00 0.136E+00 0.101E+00   -.197E-02 -.226E-02 0.319E-03
   -.258E+01 -.588E+01 -.474E+01   0.238E+01 0.525E+01 0.426E+01   -.924E-01 0.174E+01 0.935E+00   -.294E-02 -.246E-02 -.605E-03
   -.633E+00 0.650E+00 0.209E+01   0.674E+00 -.219E+00 -.162E+01   0.518E+00 -.107E+01 -.994E-01   -.227E-02 -.510E-03 -.247E-02
   0.320E+01 0.121E+01 0.558E+00   -.274E+01 -.838E+00 -.114E+00   -.115E+01 -.783E+00 -.726E-01   0.683E-03 0.851E-04 -.256E-02
   0.434E+01 -.445E+00 -.371E+00   -.398E+01 0.613E+00 0.304E+00   -.191E+00 -.600E+00 -.342E+00   -.380E-03 -.300E-02 0.284E-03
   -.822E+00 -.278E+00 0.820E+01   0.104E+01 0.244E+00 -.708E+01   0.518E-01 -.337E+00 -.245E+01   -.386E-02 -.418E-03 -.471E-04
   -.367E+01 0.388E+01 0.632E+01   0.340E+01 -.330E+01 -.549E+01   0.508E+00 -.110E+01 -.183E+01   -.433E-02 0.589E-03 0.992E-03
   0.111E+01 0.286E+01 -.454E+01   -.953E+00 -.203E+01 0.391E+01   -.364E+00 -.849E+00 0.975E+00   -.132E-02 -.368E-02 0.270E-03
   -.240E+01 -.223E+01 0.466E+01   0.216E+01 0.208E+01 -.410E+01   0.544E+00 0.303E+00 -.509E+00   -.425E-04 -.943E-03 0.195E-03
   -.154E+01 -.236E+01 -.210E+01   0.126E+01 0.245E+01 0.198E+01   0.114E+01 0.115E+00 -.139E+00   -.290E-02 -.346E-02 0.363E-03
   -.337E+01 -.688E+01 -.121E+01   0.296E+01 0.609E+01 0.978E+00   0.103E+01 0.135E+01 0.389E+00   -.241E-02 -.494E-02 0.443E-03
   -.404E+01 -.141E+01 0.916E+00   0.348E+01 0.865E+00 -.457E+00   0.114E+01 -.103E+00 -.385E+00   -.126E-02 0.217E-03 0.166E-02
   -.548E+00 -.400E+01 0.499E+01   0.300E+00 0.372E+01 -.454E+01   0.303E+00 0.928E+00 -.109E+01   -.142E-02 -.393E-02 -.475E-03
   -.307E+01 0.829E+00 0.215E+01   0.268E+01 -.689E+00 -.168E+01   0.552E+00 -.783E+00 -.448E+00   -.181E-02 -.241E-02 -.182E-05
   0.107E+01 -.223E+01 0.133E+01   -.650E+00 0.175E+01 -.132E+01   -.473E+00 0.887E+00 -.766E+00   -.357E-02 -.905E-03 0.861E-03
   -.247E+01 0.338E+01 -.307E+01   0.220E+01 -.341E+01 0.266E+01   0.348E+00 -.446E+00 0.730E+00   0.111E-02 0.353E-02 -.267E-02
   0.129E+01 0.414E+01 0.172E+01   -.859E+00 -.368E+01 -.176E+01   -.116E+01 -.906E+00 0.174E-01   -.140E-02 0.124E-02 -.141E-02
   -.337E+01 0.163E+01 -.213E+01   0.307E+01 -.169E+01 0.209E+01   0.427E+00 -.500E+00 0.119E+00   -.372E-02 0.209E-02 -.508E-03
   -.397E+01 0.166E+01 -.453E+00   0.394E+01 -.175E+01 0.567E+00   0.693E+00 0.638E+00 0.251E+00   -.366E-02 -.278E-03 -.650E-03
   0.429E+01 0.235E+01 -.313E+00   -.375E+01 -.205E+01 0.310E+00   -.862E+00 -.253E+00 -.441E+00   -.440E-03 -.494E-03 -.219E-02
   -.297E+01 0.869E+00 0.147E+01   0.277E+01 -.983E+00 -.162E+01   0.756E+00 0.352E+00 0.136E+00   -.950E-03 0.175E-02 0.763E-03
   0.792E+00 -.314E+01 -.344E+01   -.370E+00 0.272E+01 0.303E+01   -.646E+00 0.114E+01 0.734E+00   -.207E-02 -.305E-03 -.176E-02
   0.419E+01 0.214E+01 -.169E+01   -.355E+01 -.179E+01 0.139E+01   -.103E+01 -.609E+00 0.647E+00   -.110E-02 0.930E-03 -.115E-02
   -.110E+01 0.735E+00 0.167E+00   0.117E+01 -.552E+00 -.199E+00   -.436E+00 -.419E+00 -.224E+00   -.742E-03 0.191E-02 0.231E-02
   0.260E+01 0.736E-01 -.288E+01   -.225E+01 -.413E-01 0.251E+01   -.424E+00 0.680E+00 0.200E+00   0.333E-03 -.560E-03 0.388E-03
   -.384E+01 0.658E+01 0.441E+01   0.365E+01 -.628E+01 -.372E+01   0.898E+00 -.514E+00 -.913E+00   -.410E-02 0.295E-02 0.208E-02
   0.524E+00 -.284E+01 -.345E+01   -.408E+00 0.229E+01 0.311E+01   -.415E+00 0.986E+00 0.141E+01   0.460E-03 0.132E-02 -.224E-02
   -.322E+01 -.536E+01 -.110E+00   0.292E+01 0.465E+01 0.113E+00   0.659E+00 0.124E+01 -.222E+00   -.308E-03 -.144E-02 0.184E-02
   0.161E+01 0.374E+01 -.446E+01   -.160E+01 -.341E+01 0.416E+01   0.245E+00 -.766E+00 0.864E+00   0.919E-03 0.291E-02 -.226E-02
   -.203E+01 0.436E+01 0.251E+01   0.194E+01 -.403E+01 -.246E+01   0.557E-01 -.713E+00 -.420E+00   0.583E-04 0.120E-02 -.126E-02
   -.110E+01 0.263E+01 0.392E+01   0.665E+00 -.248E+01 -.362E+01   0.625E+00 -.717E+00 -.400E+00   -.365E-03 -.148E-02 -.324E-02
   0.796E+00 -.103E+01 -.241E+01   -.763E+00 0.799E+00 0.214E+01   0.405E+00 -.846E-01 -.216E-02   0.180E-02 -.210E-03 -.727E-03
   -.477E+01 -.897E+00 0.433E+01   0.425E+01 0.588E+00 -.360E+01   0.109E+01 -.329E+00 -.874E+00   0.110E-03 -.811E-03 0.169E-02
   -.931E-01 -.657E+01 -.490E+01   -.200E+00 0.616E+01 0.426E+01   0.181E+00 0.130E+01 0.821E+00   0.174E-02 -.257E-02 -.161E-02
   -.128E+01 -.586E+00 0.174E+00   0.108E+01 0.816E+00 -.419E-01   0.102E+01 0.191E+00 -.327E+00   0.258E-02 -.230E-02 -.434E-03
   0.201E+01 0.338E+01 -.343E+01   -.167E+01 -.314E+01 0.330E+01   -.105E+01 -.162E+00 0.903E+00   -.341E-03 0.224E-03 -.185E-02
   -.824E-01 -.889E-01 0.106E+01   0.170E+00 0.137E+00 -.117E+01   -.453E+00 -.629E-02 0.349E+00   -.384E-03 -.444E-02 -.376E-03
   0.468E+00 -.106E+01 0.494E+01   -.162E+00 0.104E+01 -.437E+01   -.491E+00 -.591E+00 -.164E+01   0.285E-02 -.433E-03 -.123E-02
   0.449E+01 0.575E+01 0.160E+01   -.415E+01 -.501E+01 -.134E+01   -.118E+01 -.155E+01 -.192E+00   0.291E-02 -.231E-02 0.162E-02
   -.303E+01 0.446E+00 0.114E+01   0.290E+01 0.205E+00 -.117E+01   0.250E+00 -.689E+00 -.699E-01   0.150E-02 -.295E-02 0.497E-03
   0.477E+01 -.274E+01 0.182E+01   -.435E+01 0.254E+01 -.140E+01   -.285E+00 0.450E+00 -.345E+00   0.369E-04 -.149E-02 0.690E-04
   0.348E+01 0.140E+01 -.101E+01   -.355E+01 -.892E+00 0.754E+00   -.495E+00 -.345E+00 0.325E+00   0.140E-02 -.337E-02 0.201E-02
   0.797E+00 -.384E+01 -.993E+00   -.112E+01 0.346E+01 0.716E+00   0.743E+00 0.732E+00 0.109E+01   0.398E-03 -.410E-02 -.155E-04
   -.131E+01 -.631E+01 -.143E+01   0.910E+00 0.559E+01 0.147E+01   0.129E+00 0.121E+01 0.920E-01   -.116E-02 -.394E-02 0.624E-03
   0.677E+00 0.125E+01 -.658E+01   -.102E+01 -.749E+00 0.595E+01   0.443E+00 -.579E+00 0.115E+01   0.111E-02 0.322E-03 -.305E-02
   -.236E+01 0.398E+01 0.452E+01   0.189E+01 -.334E+01 -.407E+01   0.846E+00 -.110E+01 -.736E+00   0.146E-02 0.324E-03 -.728E-03
   0.592E+01 -.445E+01 0.931E-01   -.548E+01 0.364E+01 -.218E+00   -.161E+01 0.149E+01 -.115E+00   0.280E-02 0.613E-03 -.695E-03
   0.766E+00 -.250E+01 0.154E+01   -.487E+00 0.177E+01 -.120E+01   0.833E-01 0.666E+00 -.978E+00   -.212E-02 0.122E-03 0.856E-03
   0.147E+01 0.169E+01 0.206E+01   -.133E+01 -.177E+01 -.174E+01   -.262E+00 -.212E+00 -.232E+00   0.202E-02 0.148E-02 -.202E-02
   -.443E+00 0.646E+01 0.180E+01   0.500E-01 -.609E+01 -.132E+01   0.432E+00 -.171E+01 -.288E+00   0.273E-02 0.400E-02 0.833E-03
   0.445E+01 0.141E+01 -.484E+01   -.396E+01 -.118E+01 0.422E+01   -.665E+00 -.501E-01 0.145E+01   0.367E-02 0.726E-03 -.210E-02
   0.136E+01 -.398E+01 -.382E+01   -.125E+01 0.358E+01 0.345E+01   -.981E+00 0.139E+01 0.371E+00   -.126E-02 -.200E-02 0.749E-03
   0.449E+01 0.917E+00 -.856E+00   -.380E+01 -.106E+01 0.493E+00   -.675E+00 0.402E+00 0.367E+00   -.260E-02 0.179E-02 -.252E-02
   -.939E+00 0.438E+01 -.384E+01   0.112E+01 -.392E+01 0.301E+01   0.190E+00 0.102E-01 0.126E+01   0.166E-02 -.154E-02 0.546E-03
   0.145E+01 0.310E-01 -.772E+00   -.108E+01 0.348E+00 0.343E+00   -.104E+01 0.214E+00 0.860E+00   0.478E-03 0.150E-02 0.235E-03
   0.997E+00 0.369E+01 0.308E+01   -.835E+00 -.330E+01 -.263E+01   -.116E+01 -.925E+00 -.646E+00   0.584E-03 0.443E-02 -.135E-02
   -.328E+01 0.934E+00 0.102E+01   0.304E+01 -.664E+00 -.102E+01   0.125E+01 -.612E+00 0.684E-01   -.232E-02 0.143E-02 0.179E-02
   0.937E+00 -.246E+01 -.526E+01   -.998E+00 0.206E+01 0.464E+01   0.298E+00 0.137E+01 0.110E+01   0.236E-03 0.766E-03 -.149E-02
   -.128E+01 -.182E+01 0.582E+01   0.108E+01 0.145E+01 -.519E+01   0.607E+00 -.185E+00 -.149E+01   0.195E-03 0.325E-02 0.299E-02
   -.157E+01 0.154E+01 -.285E+01   0.149E+01 -.146E+01 0.230E+01   0.428E+00 -.256E+00 0.415E+00   -.106E-02 0.503E-03 -.243E-02
   -.143E+01 0.468E+01 0.739E+00   0.102E+01 -.415E+01 -.849E+00   -.534E-01 -.924E+00 0.884E-01   -.114E-02 0.176E-02 -.943E-03
   0.289E+01 0.330E+01 -.164E+01   -.278E+01 -.290E+01 0.135E+01   -.105E+01 -.896E+00 0.349E+00   0.157E-02 -.877E-03 -.195E-02
 -----------------------------------------------------------------------------------------------
   0.256E+00 0.930E-01 -.165E-02   0.318E-12 0.195E-12 0.111E-14   -.247E+00 -.799E-01 0.164E-01   -.274E-01 -.266E-01 -.270E-01
 
 
 POSITION                                       TOTAL-FORCE (eV/Angst)
 -----------------------------------------------------------------------------------
      0.02766     10.84478     10.86636        -0.811180      0.641693      0.145978
      2.75879      2.72821      0.01263         0.368955      0.689102     -0.157218
      2.67659      0.09209      2.76454         0.066920     -0.045495      0.019650
      0.12115      2.63909      2.73981        -0.298875      1.111185      0.448206
      1.33433      1.38609      1.25931         0.556936     -0.640843      0.363896
      4.26966      4.10572      1.35585        -0.683657     -0.412858      0.368164
      4.01394      1.46215      4.19721         0.169207     -0.435130     -0.408148
      1.42247      4.14575      4.18496         0.266971     -0.371127     -1.324796
     10.91346      0.02355      5.59560         0.239592     -0.515461     -0.989650
      2.69351      2.78555      5.58767        -0.209629     -0.031145      0.342830
      2.67075      0.00686      8.16728         0.312656      0.151848      0.054311
     10.73074      2.74498      8.34729         0.847908      0.208580     -0.254626
      1.22698      1.42033      6.93988         0.615541      0.556610      0.157812
      4.10138      4.20780      6.83933         0.583103     -0.647615      0.075153
      4.06215      1.31598      9.57065         0.054090      0.643338     -0.644914
      1.30980      4.12519      9.60432         0.162433     -0.644508      0.021380
     -0.00327      5.42428      0.09770        -0.061791      0.406349     -0.749297
      2.71568      8.24241      0.02853         0.079728     -0.478914      0.321709
      2.88489      5.48933      2.72885        -0.731604     -0.445648     -0.027287
      0.09451      8.19241      2.81424         0.126052     -0.553918      0.072181
      1.36638      6.77230      1.38931         0.665099      0.540862      0.364214
      4.06162      9.63447      1.43540        -0.322566      0.052271     -0.445293
      4.19127      6.86764      4.07162         0.560938      0.239795     -0.004848
      1.43543      9.53540      4.17276        -0.225160      0.717565      0.325409
      0.02581      5.49404      5.43423        -0.391890     -0.254223      0.349149
      2.88415      8.22168      5.48487        -0.368199     -0.234397     -0.254570
      2.67890      5.42253      8.21660        -0.075294      0.711547     -0.167279
     10.89997      8.17846      8.18651         0.699109     -0.204330     -0.223946
      1.43949      6.82095      6.71067        -0.298651      0.431388      1.069281
      4.13626      9.59427      6.87470         0.355754      0.535548     -0.216904
      4.03215      6.83310      9.56409         0.254975     -0.431969      0.560767
      1.37799      9.54690      9.53666        -0.036758     -0.387703     -0.373388
      5.41732      0.03125      0.02560         0.186810     -0.565286     -0.103172
      8.05114      2.74312      0.10336         0.440335     -0.313717     -0.273529
      8.21509      0.06240      2.71775         0.575324     -0.639050     -0.142126
      5.49910      2.72489      2.87652        -0.109787      0.880950      0.174676
      6.68488      1.33023      1.46282         0.819157      0.417925     -0.195468
      9.63710      3.98758      1.35736        -0.707945      0.077188      0.775207
      9.64450      1.34826      4.09580        -0.366091      0.037336      0.237527
      6.96780      4.18974      4.20038        -0.181810     -0.610845     -1.073954
      5.51328      0.05535      5.37567        -0.836440     -0.817138      0.071095
      8.30407      2.76217      5.47221         0.122560     -0.040700     -0.105971
      8.07112      0.05589      8.15151         0.139014      0.243807      0.071722
      5.47715      2.71254      8.15471        -0.571640      0.156053      0.074283
      6.80254      1.40978      6.68055         0.424565      0.355782      0.815477
      9.56779      4.15323      6.87651        -0.273752      0.488362      0.135345
      9.39308      1.32758      9.62084         0.101775     -0.072524      0.513951
      6.81638      4.10986      9.52176         0.383470     -0.463169     -0.287084
      5.57907      5.44814     10.89118        -1.172077      0.681165     -0.240409
      8.26342      8.26372      0.08234         0.359782     -0.070380     -0.634650
      8.26947      5.49749      2.67470        -0.120499     -0.287512      0.091556
      5.50581      8.31873      2.65994         0.042069     -1.342784      0.191918
      6.88201      6.85741      1.28475        -0.164372      0.178630      0.830039
      9.71402      9.50020      1.43889        -0.873919      0.995624      0.001004
      9.57768      6.83819      4.10176         0.012628      0.256486      0.001080
      6.87974      9.55329      4.04606         0.373389      0.474362      0.437153
      5.58524      5.51723      5.47288        -0.668298      0.594686      0.431952
      8.32569      8.30285      5.49212        -0.995352     -0.531488     -0.192153
      8.10115      5.58028      8.20880         1.009279     -0.340259      0.066831
      5.41458      8.18170      8.26109         0.237435      0.969584      0.476848
      6.81954      7.01160      6.88277         0.403809     -0.551906     -0.857928
      9.52538      9.63659      6.94891         0.347314     -0.168611     -0.139765
      9.59335      6.86344      9.61925        -0.466446     -0.390886     -0.022535
      6.88432      9.61926      9.61664        -0.940995     -0.504083      0.053152
 -----------------------------------------------------------------------------------
    total drift:                               -0.018444     -0.013530     -0.012302


--------------------------------------------------------------------------------------------------------



  FREE ENERGIE OF THE ION-ELECTRON SYSTEM (eV)
  ---------------------------------------------------
  free  energy   TOTEN  =      -344.65590956 eV

  energy  without entropy=     -344.65590956  energy(sigma->0) =     -344.65590956
 


--------------------------------------------------------------------------------------------------------


    POTLOK:  cpu time      0.1762: real time      0.1766


--------------------------------------------------------------------------------------------------------


 writing wavefunctions
     LOOP+:  cpu time    187.8505: real time    192.6864
    4ORBIT:  cpu time      0.0000: real time      0.0000

 total amount of memory used by VASP MPI-rank0    37849. kBytes
=======================================================================

   base      :      30000. kBytes
   nonlr-proj:       1189. kBytes
   fftplans  :        841. kBytes
   grid      :       1174. kBytes
   one-center:          9. kBytes
   wavefun   :       4636. kBytes
 
  
  
 General timing and accounting informations for this job:
 ========================================================
  
                  Total CPU time used (sec):      231.609
                            User time (sec):      231.409
                          System time (sec):        0.199
                         Elapsed time (sec):      237.945
  
                   Maximum memory used (kb):      216716.
                   Average memory used (kb):          N/A
  
                          Minor page faults:        19336
                          Major page faults:         8279
                 Voluntary context switches:         3261
