 vasp.6.4.2 20Jul23 (build Jun 27 2024 19:57:08) complex                        
  
 executed on                 T2A5 date 2026.01.13  22:54:02
 running   28 mpi-ranks, with    1 threads/rank, on    1 nodes
 distrk:  each k-point on   28 cores,    1 groups
 distr:  one band on NCORE=  28 cores,    1 groups


--------------------------------------------------------------------------------------------------------


 INCAR:
   ISTART = 1
   ICHARG = 1
   LWAVE = .T.
   LCHARG = .T.
   ENCUT = 250
   PREC = Normal
   ADDGRID = .F.
   EDIFF = 1E-4
   LREAL = Auto
   ALGO = Fast
   NSW = 0
   IBRION = -1
   ISMEAR = 0
   SIGMA = 0.1
   NPAR = 1
   KPAR = 1
   SYMPREC = 1E-4

 POTCAR:    PAW_PBE Si 05Jan2001                  
 POTCAR:    PAW_PBE Si 05Jan2001                  
   SHA256 =  79d9987ad8750f624c4d6acb2a16d13abf6a777132adc04dc6c8399be72b42bb Si/POTCAR             
   COPYR  = (c) Copyright 05Jan2001 Georg Kresse                                                    
   COPYR  = This file is part of the software VASP. Any use, copying, and all other rights are regul
   COPYR  = If you do not have a valid VASP license, you may not use, copy or distribute this file. 
   VRHFIN =Si: s2p2                                                                                 
   LEXCH  = PE                                                                                      
   EATOM  =   103.0669 eV,    7.5752 Ry                                                             
                                                                                                    
   TITEL  = PAW_PBE Si 05Jan2001                                                                    
   LULTRA =        F    use ultrasoft PP ?                                                          
   IUNSCR =        1    unscreen: 0-lin 1-nonlin 2-no                                               
   RPACOR =    1.500    partial core radius                                                         
   POMASS =   28.085; ZVAL   =    4.000    mass and valenz                                          
   RCORE  =    1.900    outmost cutoff radius                                                       
   RWIGS  =    2.480; RWIGS  =    1.312    wigner-seitz radius (au A)                               
   ENMAX  =  245.345; ENMIN  =  184.009 eV                                                          
   ICORE  =        2    local potential                                                             
   LCOR   =        T    correct aug charges                                                         
   LPAW   =        T    paw PP                                                                      
   EAUG   =  322.069                                                                                
   DEXC   =    0.000                                                                                
   RMAX   =    1.950    core radius for proj-oper                                                   
   RAUG   =    1.300    factor for augmentation sphere                                              
   RDEP   =    1.993    radius for radial grids                                                     
   RDEPT  =    1.837    core radius for aug-charge                                                  
                                                                                                    
   Atomic configuration                                                                             
    6 entries                                                                                       
     n  l   j            E        occ.                                                              
     1  0  0.50     -1785.8828   2.0000                                                             
     2  0  0.50      -139.4969   2.0000                                                             
     2  1  1.50       -95.5546   6.0000                                                             
     3  0  0.50       -10.8127   2.0000                                                             
     3  1  0.50        -4.0811   2.0000                                                             
     3  2  1.50        -4.0817   0.0000                                                             
   Description                                                                                      
     l       E           TYP  RCUT    TYP  RCUT                                                     
     0    -10.8127223     23  1.900                                                                 
     0     -7.6451159     23  1.900                                                                 
     1     -4.0811372     23  1.900                                                                 
     1      2.4879257     23  1.900                                                                 
     2     -4.0817478      7  1.900                                                                 
  local pseudopotential read in
  partial core-charges read in
  partial kinetic energy density read in
  atomic valenz-charges read in
  non local Contribution for L=           0  read in
    real space projection operators read in
  non local Contribution for L=           0  read in
    real space projection operators read in
  non local Contribution for L=           1  read in
    real space projection operators read in
  non local Contribution for L=           1  read in
    real space projection operators read in
    PAW grid and wavefunctions read in
 
   number of l-projection  operators is LMAX  =           4
   number of lm-projection operators is LMMAX =           8
 
 Optimization of the real space projectors (new method)

 maximal supplied QI-value         = 19.84
 optimisation between [QCUT,QGAM] = [  7.94, 16.07] = [ 17.64, 72.34] Ry 
 Optimized for a Real-space Cutoff    1.55 Angstroem

   l    n(q)    QCUT    max X(q) W(low)/X(q) W(high)/X(q)  e(spline) 
   0      7     7.937   159.560    0.97E-04    0.31E-03    0.13E-06
   0      7     7.937   115.863    0.95E-04    0.31E-03    0.13E-06
   1      7     7.937    88.339    0.40E-03    0.66E-03    0.12E-06
   1      7     7.937    48.592    0.39E-03    0.64E-03    0.12E-06
  PAW_PBE Si 05Jan2001                  :
 energy of atom  1       EATOM= -103.0669
 kinetic energy error for atom=    0.0052 (will be added to EATOM!!)
 
 
 POSCAR: Si
  positions in cartesian coordinates
  No initial velocities read in
 exchange correlation table for  LEXCH =        8
   RHO(1)=    0.500       N(1)  =     2000
   RHO(2)=  100.500       N(2)  =     4000
 


--------------------------------------------------------------------------------------------------------


 ion  position               nearest neighbor table
   1  0.998  0.006  0.000-  47 2.32  54 2.32   5 2.38  32 2.43
   2  0.261  0.255  0.002-   6 2.32  16 2.33  15 2.35   5 2.38
   3  0.251  0.005  0.255-  24 2.32   7 2.35   5 2.36  22 2.38
   4  0.005  0.256  0.252-   8 2.29  38 2.32  39 2.34   5 2.40
   5  0.131  0.129  0.124-   3 2.36   2 2.38   1 2.38   4 2.40
   6  0.379  0.378  0.130-  19 2.31   2 2.32  36 2.35  49 2.36
   7  0.368  0.133  0.384-   3 2.35  10 2.37  41 2.37  36 2.38
   8  0.136  0.372  0.368-  19 2.29   4 2.29  10 2.33  25 2.40
   9  0.008  0.006  0.505-  39 2.33  24 2.34  13 2.38  62 2.40
  10  0.249  0.261  0.513-  14 2.33   8 2.33  13 2.34   7 2.37
  11  0.252  0.008  0.748-  13 2.32  15 2.33  30 2.33  32 2.42
  12  0.996  0.254  0.765-  13 2.35  16 2.35  46 2.38  47 2.39
  13  0.124  0.137  0.637-  11 2.32  10 2.34  12 2.35   9 2.38
  14  0.381  0.385  0.628-  57 2.31  44 2.31  10 2.33  27 2.36
  15  0.378  0.134  0.867-  44 2.31  11 2.33   2 2.35  33 2.42
  16  0.132  0.377  0.881-   2 2.33  12 2.35  27 2.37  17 2.37
  17  0.004  0.498  0.009-  63 2.36  16 2.37  38 2.38  21 2.40
  18  0.253  0.746  0.007-  31 2.32  21 2.33  22 2.33  32 2.40
  19  0.260  0.501  0.257-   8 2.29   6 2.31  21 2.32  23 2.34
  20  0.013  0.753  0.261-  24 2.35  21 2.36  55 2.38  54 2.39
  21  0.134  0.624  0.136-  19 2.32  18 2.33  20 2.36  17 2.40
  22  0.373  0.873  0.131-  18 2.33   3 2.38  33 2.41  52 2.41
  23  0.389  0.626  0.375-  57 2.29  52 2.32  19 2.34  26 2.37
  24  0.136  0.880  0.385-   3 2.32   9 2.34  26 2.35  20 2.35
  25  0.010  0.497  0.498-  46 2.36  55 2.39  29 2.39   8 2.40
  26  0.265  0.752  0.502-  30 2.34  24 2.35  23 2.37  29 2.37
  27  0.253  0.506  0.754-  31 2.32  29 2.35  14 2.36  16 2.37
  28  0.007  0.748  0.751-  29 2.34  32 2.34  62 2.39  63 2.41
  29  0.133  0.629  0.625-  28 2.34  27 2.35  26 2.37  25 2.39
  30  0.379  0.883  0.629-  41 2.32  11 2.33  60 2.34  26 2.34
  31  0.375  0.627  0.880-  27 2.32  18 2.32  49 2.32  60 2.38
  32  0.129  0.874  0.876-  28 2.34  18 2.40  11 2.42   1 2.43
  33  0.496  0.007  0.005-  64 2.35  22 2.41  15 2.42  37 2.44
  34  0.750  0.253  0.009-  47 2.30  37 2.32  38 2.34  48 2.38
  35  0.764  0.006  0.251-  54 2.34  39 2.35  37 2.37  56 2.38
  36  0.500  0.260  0.264-  40 2.32   6 2.35   7 2.38  37 2.42
  37  0.628  0.132  0.136-  34 2.32  35 2.37  36 2.42  33 2.44
  38  0.872  0.377  0.135-  51 2.29   4 2.32  34 2.34  17 2.38
  39  0.887  0.130  0.379-   9 2.33   4 2.34  35 2.35  42 2.38
  40  0.632  0.384  0.376-  51 2.32  36 2.32  42 2.38  57 2.39
  41  0.499  0.003  0.499-  30 2.32   7 2.37  56 2.39  45 2.41
  42  0.760  0.259  0.502-  46 2.36  45 2.38  40 2.38  39 2.38
  43  0.742  0.003  0.757-  47 2.35  64 2.35  45 2.41  62 2.48
  44  0.502  0.257  0.747-  15 2.31  14 2.31  48 2.32  45 2.32
  45  0.626  0.136  0.623-  44 2.32  42 2.38  43 2.41  41 2.41
  46  0.882  0.384  0.632-  59 2.31  25 2.36  42 2.36  12 2.38
  47  0.864  0.126  0.885-  34 2.30   1 2.32  43 2.35  12 2.39
  48  0.627  0.374  0.874-  44 2.32  59 2.36  34 2.38  49 2.40
  49  0.500  0.503  0.001-  31 2.32   6 2.36  53 2.36  48 2.40
  50  0.759  0.758  0.001-  64 2.36  53 2.38  54 2.38  63 2.40
  51  0.755  0.506  0.252-  38 2.29  40 2.32  53 2.33  55 2.35
  52  0.512  0.746  0.249-  23 2.32  53 2.33  56 2.38  22 2.41
  53  0.633  0.625  0.121-  52 2.33  51 2.33  49 2.36  50 2.38
  54  0.888  0.879  0.131-   1 2.32  35 2.34  50 2.38  20 2.39
  55  0.879  0.628  0.380-  51 2.35  58 2.36  20 2.38  25 2.39
  56  0.632  0.882  0.373-  58 2.34  35 2.38  52 2.38  41 2.39
  57  0.505  0.507  0.505-  23 2.29  14 2.31  61 2.34  40 2.39
  58  0.748  0.753  0.500-  56 2.34  61 2.35  55 2.36  62 2.39
  59  0.754  0.503  0.753-  46 2.31  63 2.32  48 2.36  61 2.37
  60  0.499  0.760  0.758-  64 2.29  30 2.34  31 2.38  61 2.42
  61  0.628  0.631  0.631-  57 2.34  58 2.35  59 2.37  60 2.42
  62  0.879  0.876  0.627-  28 2.39  58 2.39   9 2.40  43 2.48
  63  0.880  0.620  0.880-  59 2.32  17 2.36  50 2.40  28 2.41
  64  0.621  0.877  0.885-  60 2.29  33 2.35  43 2.35  50 2.36
 
  LATTYP: Found a base centered monoclinic cell.
 ALAT       =    26.6694161100
 B/A-ratio  =     0.5765729315
 C/A-ratio  =     0.4079806357
 COS(beta)  =    -0.8165816974
  
  Lattice vectors:
  
 A1 = (  10.8879634700, -10.8806014700,   0.0000000000)
 A2 = (   0.0215714900, -10.8879630800, -10.8797702200)
 A3 = (  -0.0091758700,  10.8806014700,   0.0000000000)


Analysis of symmetry for initial positions (statically):
=====================================================================
 Subroutine PRICEL returns:
 Original cell was already a primitive cell.
 

 Routine SETGRP: Setting up the symmetry group for a 
 base centered monoclinic supercell.


 Subroutine GETGRP returns: Found  1 space group operations
 (whereof  1 operations were pure point group operations)
 out of a pool of  4 trial point group operations.


The static configuration has the point symmetry C_1 .


Analysis of symmetry for dynamics (positions and initial velocities):
=====================================================================
 Subroutine PRICEL returns:
 Original cell was already a primitive cell.
 

 Routine SETGRP: Setting up the symmetry group for a 
 base centered monoclinic supercell.


 Subroutine GETGRP returns: Found  1 space group operations
 (whereof  1 operations were pure point group operations)
 out of a pool of  4 trial point group operations.


The dynamic configuration has the point symmetry C_1 .


 Subroutine INISYM returns: Found  1 space group operations
 (whereof  1 operations are pure point group operations),
 and found     1 'primitive' translations


----------------------------------------------------------------------------------------

                                     Primitive cell                                     

  volume of cell :    1287.8139

  direct lattice vectors                    reciprocal lattice vectors
    10.878787600  0.000000000  0.000000000     0.091922008  0.000077520  0.000104677
    -0.009175870 10.880601470  0.000000000     0.000000000  0.091906684 -0.000062187
    -0.012395620  0.007361610 10.879770220     0.000000000  0.000000000  0.091913706

  length of vectors
    10.878787600 10.880605339 10.879779772     0.091922100  0.091906705  0.091913706

  position of ions in fractional coordinates (direct lattice)
     0.997830214  0.005951791  0.000477814
     0.260582380  0.255188364  0.002107792
     0.250657664  0.004502920  0.255402629
     0.004588582  0.256296048  0.251582151
     0.130740745  0.128651725  0.124217681
     0.378743454  0.378227451  0.130474486
     0.367556778  0.133062717  0.383861043
     0.136422799  0.372468493  0.367786119
     0.008139604  0.006055274  0.504842513
     0.248669964  0.261204855  0.513113018
     0.252493700  0.007658120  0.747955001
     0.996450284  0.254116242  0.764869516
     0.124336866  0.136910537  0.636888415
     0.381261638  0.385101786  0.627882550
     0.377512936  0.134412743  0.866908869
     0.131961172  0.376672224  0.880956402
     0.004495807  0.498003113  0.008945632
     0.252686554  0.746049003  0.007268878
     0.260201073  0.500990728  0.256648775
     0.013225660  0.753223960  0.260610950
     0.133770093  0.623541228  0.136005985
     0.373351056  0.872872559  0.130928758
     0.388963506  0.626374244  0.375275896
     0.135774946  0.880442013  0.385271910
     0.010086764  0.497275327  0.498340090
     0.264628682  0.752293342  0.501879790
     0.253121637  0.505527988  0.754341204
     0.006645453  0.748096435  0.751360428
     0.132971687  0.629347096  0.624564883
     0.379347167  0.882868574  0.629017520
     0.375425136  0.627262826  0.879841767
     0.128824882  0.874189130  0.876404994
     0.496209172  0.006628331  0.004742104
     0.749666804  0.253015219  0.008558967
     0.764219702  0.006147515  0.251476978
     0.499823872  0.259891849  0.264355817
     0.628481638  0.131504045  0.135820650
     0.872303694  0.377205140  0.135137062
     0.886661178  0.130045027  0.378982523
     0.632276743  0.383881946  0.376454314
     0.498599352  0.003104321  0.499248545
     0.760073262  0.258878438  0.502313857
     0.741765877  0.002595791  0.757228931
     0.502034712  0.257206772  0.747245264
     0.626227858  0.135691947  0.623245498
     0.881632656  0.384091779  0.631727306
     0.864456780  0.125626866  0.885384696
     0.627372274  0.374287384  0.874284841
     0.500067175  0.502666658  0.000805773
     0.758767374  0.758057326  0.001494260
     0.754548892  0.506227378  0.252104534
     0.512291188  0.746448217  0.248589694
     0.633399557  0.624988583  0.121273005
     0.887751463  0.878617046  0.131092508
     0.879145182  0.628249179  0.380081688
     0.631519100  0.881588096  0.373217449
     0.504677712  0.507293465  0.505362809
     0.748490804  0.752889412  0.500319029
     0.754251045  0.502795464  0.753267734
     0.499218140  0.760064090  0.758432899
     0.627633814  0.631135699  0.631039554
     0.878924727  0.876155895  0.627208266
     0.880218832  0.619724148  0.879896702
     0.620518739  0.877085044  0.884841670

  ion indices of the primitive-cell ions
   primitive index   ion index
                 1           1
                 2           2
                 3           3
                 4           4
                 5           5
                 6           6
                 7           7
                 8           8
                 9           9
                10          10
                11          11
                12          12
                13          13
                14          14
                15          15
                16          16
                17          17
                18          18
                19          19
                20          20
                21          21
                22          22
                23          23
                24          24
                25          25
                26          26
                27          27
                28          28
                29          29
                30          30
                31          31
                32          32
                33          33
                34          34
                35          35
                36          36
                37          37
                38          38
                39          39
                40          40
                41          41
                42          42
                43          43
                44          44
                45          45
                46          46
                47          47
                48          48
                49          49
                50          50
                51          51
                52          52
                53          53
                54          54
                55          55
                56          56
                57          57
                58          58
                59          59
                60          60
                61          61
                62          62
                63          63
                64          64

----------------------------------------------------------------------------------------

 
 
 KPOINTS: K-Points                                

Automatic generation of k-mesh.
 Grid dimensions read from file:
 generate k-points for:    2    2    2

 Generating k-lattice:

  Cartesian coordinates                     Fractional coordinates (reciprocal lattice)
     0.045961004  0.000038760  0.000052338     0.500000000 -0.000000000 -0.000000000
     0.000000000  0.045953342 -0.000031094     0.000000000  0.500000000 -0.000000000
     0.000000000  0.000000000  0.045956853     0.000000000  0.000000000  0.500000000

  Length of vectors
     0.045961050  0.045953352  0.045956853

  Shift w.r.t. Gamma in fractional coordinates (k-lattice)
     0.500000000  0.500000000  0.500000000

 
 Subroutine IBZKPT returns following result:
 ===========================================
 
 Found      4 irreducible k-points:
 
 Following reciprocal coordinates:
            Coordinates               Weight
  0.250000  0.250000  0.250000      2.000000
  0.250000 -0.250000  0.250000      2.000000
 -0.250000  0.250000  0.250000      2.000000
 -0.250000 -0.250000  0.250000      2.000000
 
 Following cartesian coordinates:
            Coordinates               Weight
  0.022981  0.022996  0.022989      2.000000
  0.022981 -0.022957  0.023020      2.000000
 -0.022981  0.022957  0.022937      2.000000
 -0.022981 -0.022996  0.022968      2.000000
 


--------------------------------------------------------------------------------------------------------




 Dimension of arrays:
   k-points           NKPTS =      4   k-points in BZ     NKDIM =      4   number of bands    NBANDS=    161
   number of dos      NEDOS =    301   number of ions     NIONS =     64
   non local maximal  LDIM  =      4   non local SUM 2l+1 LMDIM =      8
   total plane-waves  NPLWV =  74088
   max r-space proj   IRMAX =    950   max aug-charges    IRDMAX=   2123
   dimension x,y,z NGX =    42 NGY =   42 NGZ =   42
   dimension x,y,z NGXF=    84 NGYF=   84 NGZF=   84
   support grid    NGXF=    84 NGYF=   84 NGZF=   84
   ions per type =              64
   NGX,Y,Z   is equivalent  to a cutoff of   6.42,  6.42,  6.42 a.u.
   NGXF,Y,Z  is equivalent  to a cutoff of  12.84, 12.83, 12.84 a.u.

 SYSTEM =  unknown system                          
 POSCAR =  Si                                      

 Startparameter for this run:
   NWRITE =      2    write-flag & timer
   PREC   = normal    normal or accurate (medium, high low for compatibility)
   ISTART =      1    job   : 0-new  1-cont  2-samecut
   ICHARG =      1    charge: 1-file 2-atom 10-const
   ISPIN  =      1    spin polarized calculation?
   LNONCOLLINEAR =      F non collinear calculations
   LSORBIT =      F    spin-orbit coupling
   INIWAV =      1    electr: 0-lowe 1-rand  2-diag
   LASPH  =      F    aspherical Exc in radial PAW
 Electronic Relaxation 1
   ENCUT  =  250.0 eV  18.37 Ry    4.29 a.u.  14.03 14.03 14.03*2*pi/ulx,y,z
   ENINI  =  250.0     initial cutoff
   ENAUG  =  322.1 eV  augmentation charge cutoff
   NELM   =     60;   NELMIN=  2; NELMDL=  0     # of ELM steps 
   EDIFF  = 0.1E-03   stopping-criterion for ELM
   LREAL  =      T    real-space projection
   NLSPLINE    = F    spline interpolate recip. space projectors
   LCOMPAT=      F    compatible to vasp.4.4
   GGA_COMPAT  = T    GGA compatible to vasp.4.4-vasp.4.6
   LMAXPAW     = -100 max onsite density
   LMAXMIX     =    2 max onsite mixed and CHGCAR
   VOSKOWN=      0    Vosko Wilk Nusair interpolation
   ROPT   =   -0.00050
 Ionic relaxation
   EDIFFG = 0.1E-02   stopping-criterion for IOM
   NSW    =      0    number of steps for IOM
   NBLOCK =      1;   KBLOCK =      1    inner block; outer block 
   IBRION =     -1    ionic relax: 0-MD 1-quasi-New 2-CG
   NFREE  =      0    steps in history (QN), initial steepest desc. (CG)
   ISIF   =      2    stress and relaxation
   IWAVPR =     10    prediction:  0-non 1-charg 2-wave 3-comb
   ISYM   =      2    0-nonsym 1-usesym 2-fastsym
   LCORR  =      T    Harris-Foulkes like correction to forces

   POTIM  = 0.5000    time-step for ionic-motion
   TEIN   =    0.0    initial temperature
   TEBEG  =    0.0;   TEEND  =   0.0 temperature during run
   SMASS  =  -3.00    Nose mass-parameter (am)
   estimated Nose-frequenzy (Omega)   =  0.10E-29 period in steps = 0.13E+47 mass=  -0.270E-26a.u.
   SCALEE = 1.0000    scale energy and forces
   NPACO  =    256;   APACO  = 10.0  distance and # of slots for P.C.
   PSTRESS=    0.0 pullay stress

  Mass of Ions in am
   POMASS =  28.09
  Ionic Valenz
   ZVAL   =   4.00
  Atomic Wigner-Seitz radii
   RWIGS  =  -1.00
  virtual crystal weights 
   VCA    =   1.00
   NELECT =     256.0000    total number of electrons
   NUPDOWN=      -1.0000    fix difference up-down

 DOS related values:
   EMIN   =  10.00;   EMAX   =-10.00  energy-range for DOS
   EFERMI =   0.00;   METHOD = LEGACY      
   ISMEAR =     0;   SIGMA  =   0.10  broadening in eV -4-tet -1-fermi 0-gaus

 Electronic relaxation 2 (details)
   IALGO  =     68    algorithm
   LDIAG  =      T    sub-space diagonalisation (order eigenvalues)
   LSUBROT=      F    optimize rotation matrix (better conditioning)
   TURBO    =      0    0=normal 1=particle mesh
   IRESTART =      0    0=no restart 2=restart with 2 vectors
   NREBOOT  =      0    no. of reboots
   NMIN     =      0    reboot dimension
   EREF     =   0.00    reference energy to select bands
   IMIX   =      4    mixing-type and parameters
     AMIX     =   0.40;   BMIX     =  1.00
     AMIX_MAG =   1.60;   BMIX_MAG =  1.00
     AMIN     =   0.10
     WC   =   100.;   INIMIX=   1;  MIXPRE=   1;  MAXMIX= -45

 Intra band minimization:
   WEIMIN = 0.0000     energy-eigenvalue tresh-hold
   EBREAK =  0.16E-06  absolut break condition
   DEPER  =   0.30     relativ break condition  

   TIME   =   0.40     timestep for ELM

  volume/ion in A,a.u.               =      20.12       135.79
  Fermi-wavevector in a.u.,A,eV,Ry     =   0.955441  1.805521 12.420311  0.912867
  Thomas-Fermi vector in A             =   2.084279
 
 Write flags
   LWAVE        =      T    write WAVECAR
   LDOWNSAMPLE  =      F    k-point downsampling of WAVECAR
   LCHARG       =      T    write CHGCAR
   LVTOT        =      F    write LOCPOT, total local potential
   LVHAR        =      F    write LOCPOT, Hartree potential only
   LELF         =      F    write electronic localiz. function (ELF)
   LORBIT       =      0    0 simple, 1 ext, 2 COOP (PROOUT), +10 PAW based schemes


 Dipole corrections
   LMONO  =      F    monopole corrections only (constant potential shift)
   LDIPOL =      F    correct potential (dipole corrections)
   IDIPOL =      0    1-x, 2-y, 3-z, 4-all directions 
   EPSILON=  1.0000000 bulk dielectric constant

 Exchange correlation treatment:
   GGA     =    --    GGA type
   LEXCH   =     8    internal setting for exchange type
   LIBXC   =     F    Libxc                    
   VOSKOWN =     0    Vosko Wilk Nusair interpolation
   LHFCALC =     F    Hartree Fock is set to
   LHFONE  =     F    Hartree Fock one center treatment
   AEXX    =    0.0000 exact exchange contribution

 Linear response parameters
   LEPSILON=     F    determine dielectric tensor
   LRPA    =     F    only Hartree local field effects (RPA)
   LNABLA  =     F    use nabla operator in PAW spheres
   LVEL    =     F    velocity operator in full k-point grid
   CSHIFT  =0.1000    complex shift for real part using Kramers Kronig
   OMEGAMAX=  -1.0    maximum frequency
   DEG_THRESHOLD= 0.2000000E-02 threshold for treating states as degnerate
   RTIME   =   -0.100 relaxation time in fs
  (WPLASMAI=    0.000 imaginary part of plasma frequency in eV, 0.658/RTIME)
   DFIELD  = 0.0000000 0.0000000 0.0000000 field for delta impulse in time
 
  Optional k-point grid parameters
   LKPOINTS_OPT  =     F    use optional k-point grid
   KPOINTS_OPT_MODE=     1    mode for optional k-point grid
 
 Orbital magnetization related:
   ORBITALMAG=     F  switch on orbital magnetization
   LCHIMAG   =     F  perturbation theory with respect to B field
   DQ        =  0.001000  dq finite difference perturbation B field
   LLRAUG    =     F  two centre corrections for induced B field
   LBONE     =     F  B-component reconstruction in AE one-centre
   LVGVCALC  =     T  calculate vGv susceptibility
   LVGVAPPL  =     F  apply vGv susceptibility instead of pGv for G=0

 Random number generation:
   RANDOM_GENERATOR = DEFAULT
   PCG_SEED         = not used


--------------------------------------------------------------------------------------------------------


 Static calculation
 charge density and potential will be updated during run
 non-spin polarized calculation
 RMM-DIIS sequential band-by-band and
  variant of blocked Davidson during initial phase
 perform sub-space diagonalisation
    before iterative eigenvector-optimisation
 modified Broyden-mixing scheme, WC =      100.0
 initial mixing is a Kerker type mixing with AMIX =  0.4000 and BMIX =      1.0000
 Hartree-type preconditioning will be used
 using additional bands           33
 real space projection scheme for non local part
 use partial core corrections
 calculate Harris-corrections to forces 
   (improved forces if not selfconsistent)
 use gradient corrections 
 use of overlap-Matrix (Vanderbilt PP)
 Gauss-broadening in eV      SIGMA  =   0.10


--------------------------------------------------------------------------------------------------------


  energy-cutoff  :      250.00
  volume of cell :     1287.81
      direct lattice vectors                 reciprocal lattice vectors
    10.878787600  0.000000000  0.000000000     0.091922008  0.000077520  0.000104677
    -0.009175870 10.880601470  0.000000000     0.000000000  0.091906684 -0.000062187
    -0.012395620  0.007361610 10.879770220     0.000000000  0.000000000  0.091913706

  length of vectors
    10.878787600 10.880605339 10.879779772     0.091922100  0.091906705  0.091913706


 
 old parameters found on file WAVECAR:
  energy-cutoff  :      250.00
  volume of cell :     1288.18
      direct lattice vectors                 reciprocal lattice vectors
    10.879857590  0.000000000  0.000000000     0.091912968  0.000076957  0.000103804
    -0.009110900 10.881509720  0.000000000     0.000000000  0.091899013 -0.000061979
    -0.012294750  0.007338310 10.880863060     0.000000000  0.000000000  0.091904474

  length of vectors

 
 k-points in units of 2pi/SCALE and weight: K-Points                                
   0.02298050  0.02299605  0.02298905       0.250
   0.02298050 -0.02295729  0.02302014       0.250
  -0.02298050  0.02295729  0.02293671       0.250
  -0.02298050 -0.02299605  0.02296780       0.250
 
 k-points in reciprocal lattice and weights: K-Points                                
   0.25000000  0.25000000  0.25000000       0.250
   0.25000000 -0.25000000  0.25000000       0.250
  -0.25000000  0.25000000  0.25000000       0.250
  -0.25000000 -0.25000000  0.25000000       0.250
 
 position of ions in fractional coordinates (direct lattice) 
   0.99783021  0.00595179  0.00047781
   0.26058238  0.25518836  0.00210779
   0.25065766  0.00450292  0.25540263
   0.00458858  0.25629605  0.25158215
   0.13074075  0.12865172  0.12421768
   0.37874345  0.37822745  0.13047449
   0.36755678  0.13306272  0.38386104
   0.13642280  0.37246849  0.36778612
   0.00813960  0.00605527  0.50484251
   0.24866996  0.26120486  0.51311302
   0.25249370  0.00765812  0.74795500
   0.99645028  0.25411624  0.76486952
   0.12433687  0.13691054  0.63688841
   0.38126164  0.38510179  0.62788255
   0.37751294  0.13441274  0.86690887
   0.13196117  0.37667222  0.88095640
   0.00449581  0.49800311  0.00894563
   0.25268655  0.74604900  0.00726888
   0.26020107  0.50099073  0.25664878
   0.01322566  0.75322396  0.26061095
   0.13377009  0.62354123  0.13600599
   0.37335106  0.87287256  0.13092876
   0.38896351  0.62637424  0.37527590
   0.13577495  0.88044201  0.38527191
   0.01008676  0.49727533  0.49834009
   0.26462868  0.75229334  0.50187979
   0.25312164  0.50552799  0.75434120
   0.00664545  0.74809643  0.75136043
   0.13297169  0.62934710  0.62456488
   0.37934717  0.88286857  0.62901752
   0.37542514  0.62726283  0.87984177
   0.12882488  0.87418913  0.87640499
   0.49620917  0.00662833  0.00474210
   0.74966680  0.25301522  0.00855897
   0.76421970  0.00614752  0.25147698
   0.49982387  0.25989185  0.26435582
   0.62848164  0.13150404  0.13582065
   0.87230369  0.37720514  0.13513706
   0.88666118  0.13004503  0.37898252
   0.63227674  0.38388195  0.37645431
   0.49859935  0.00310432  0.49924854
   0.76007326  0.25887844  0.50231386
   0.74176588  0.00259579  0.75722893
   0.50203471  0.25720677  0.74724526
   0.62622786  0.13569195  0.62324550
   0.88163266  0.38409178  0.63172731
   0.86445678  0.12562687  0.88538470
   0.62737227  0.37428738  0.87428484
   0.50006717  0.50266666  0.00080577
   0.75876737  0.75805733  0.00149426
   0.75454889  0.50622738  0.25210453
   0.51229119  0.74644822  0.24858969
   0.63339956  0.62498858  0.12127301
   0.88775146  0.87861705  0.13109251
   0.87914518  0.62824918  0.38008169
   0.63151910  0.88158810  0.37321745
   0.50467771  0.50729346  0.50536281
   0.74849080  0.75288941  0.50031903
   0.75425105  0.50279546  0.75326773
   0.49921814  0.76006409  0.75843290
   0.62763381  0.63113570  0.63103955
   0.87892473  0.87615589  0.62720827
   0.88021883  0.61972415  0.87989670
   0.62051874  0.87708504  0.88484167
 
 position of ions in cartesian coordinates  (Angst):
  10.85512242  0.06476258  0.00519851
   2.83245266  2.77661840  0.02293229
   2.72364429  0.05087465  2.77872192
   0.04444795  2.79050721  2.73715599
   1.41958055  1.40072259  1.35145983
   4.11518171  4.11630266  1.41953243
   3.99259296  1.45062823  4.17631994
   1.47613799  4.05538873  4.00142847
   0.08223563  0.06960148  5.49257054
   2.69647059  2.84584327  5.58255173
   2.73748370  0.08883110  8.13757855
  10.82835822  2.77056823  8.32160458
   1.34348346  1.49435751  6.92919961
   4.13634774  4.19476128  6.83121787
   4.09490382  1.46887333  9.43176930
   1.42120127  4.10490561  9.58460323
   0.04422843  5.41863926  0.09732642
   2.74198760  8.11751539  0.07908372
   2.82289386  5.45296980  2.79227970
   0.13373723  8.19744824  2.83538725
   1.44784902  6.78550482  1.47971387
   4.05197453  9.49834230  1.42447480
   4.22105206  6.81809116  4.08291552
   1.46421229  9.58257488  4.19166985
   0.09899159  5.41432324  5.42182567
   2.86571517  8.18909869  5.46033679
   2.73966734  5.50600173  8.20705897
   0.05611646  8.14527039  8.17462881
   1.43305406  6.85227274  6.79512241
   4.11093911  9.61077169  6.84356608
   4.06750845  6.83147388  9.57247626
   1.38257350  9.51815528  9.53508495
   5.39803459  0.07215514  0.05159300
   8.15303820  2.75302077  0.09311959
   8.31061020  0.06873994  2.73601174
   5.43181615  2.82972572  2.87613054
   6.83422800  1.43184296  1.47769746
   9.48447032  4.10521363  1.47026018
   9.63990763  1.41775803  4.12324277
   6.87021556  4.17963778  4.09573643
   5.41793947  0.03745215  5.43170945
   8.26007365  2.82045095  5.46505934
   8.06010328  0.03381819  8.23847677
   5.44990633  2.80406531  8.12985677
   6.80362925  1.48099809  6.78076781
   9.57973938  4.18380011  6.87304793
   9.39211407  1.37341372  9.63278205
   6.81077800  4.07890800  9.51201818
   5.43550219  5.46932151  0.00876663
   8.24749474  8.24813066  0.01625721
   8.20080706  5.50991425  2.74283940
   5.56317629  8.12363559  2.70459875
   6.88338118  6.80114446  1.31942243
   9.64797256  9.56084697  1.42625637
   9.55355762  6.83852695  4.13520143
   6.85744656  9.59495621  4.06052009
   5.47936249  5.52337830  5.49823124
   8.12956230  8.19557280  5.44335607
   8.19138611  5.47626233  8.19537986
   5.41451262  8.27553774  8.25157567
   6.81428161  6.87178148  6.86556535
   9.54582129  9.53772038  6.82388181
   9.55912034  6.74944893  9.57307393
   6.73147538  9.54972668  9.62687405
 


--------------------------------------------------------------------------------------------------------


 k-point   1 :   0.2500 0.2500 0.2500  plane waves:   11550
 k-point   2 :   0.2500-0.2500 0.2500  plane waves:   11553
 k-point   3 :  -0.2500 0.2500 0.2500  plane waves:   11572
 k-point   4 :  -0.2500-0.2500 0.2500  plane waves:   11559

 maximum and minimum number of plane-waves per node :       428      395

 maximum number of plane-waves:     11572
 maximum index in each direction: 
   IXMAX=   14   IYMAX=   14   IZMAX=   13
   IXMIN=  -14   IYMIN=  -14   IZMIN=  -14


 real space projection operators:
  total allocation   :       3496.31 KBytes
  max/ min on nodes  :        172.62         77.19


 parallel 3D FFT for wavefunctions:
    minimum data exchange during FFTs selected (reduces bandwidth)
 parallel 3D FFT for charge:
    minimum data exchange during FFTs selected (reduces bandwidth)


 total amount of memory used by VASP MPI-rank0    37858. kBytes
=======================================================================

   base      :      30000. kBytes
   nonlr-proj:       1198. kBytes
   fftplans  :        841. kBytes
   grid      :       1174. kBytes
   one-center:          9. kBytes
   wavefun   :       4636. kBytes
 
     INWAV:  cpu time     19.9824: real time     20.0329
 Broyden mixing: mesh for mixing (old mesh)
   NGX = 29   NGY = 29   NGZ = 29
  (NGX  = 84   NGY  = 84   NGZ  = 84)
  gives a total of  24389 points

 initial charge density was supplied:
 number of electron     256.0000030 magnetization 
 keeping initial charge density in first step


--------------------------------------------------------------------------------------------------------


 Maximum index for non-local projection operator          112
 Maximum index for augmentation-charges          186 (set IRDMAX)


--------------------------------------------------------------------------------------------------------


 First call to EWALD:  gamma=   0.163
 Maximum number of real-space cells 3x 3x 3
 Maximum number of reciprocal cells 3x 3x 3

    FEWALD:  cpu time      0.0372: real time      0.0373


--------------------------------------- Ionic step        1  -------------------------------------------




--------------------------------------- Iteration      1(   1)  ---------------------------------------


    POTLOK:  cpu time      0.2095: real time      2.4744
    SETDIJ:  cpu time      0.0137: real time      0.0138
     EDDAV:  cpu time     38.6018: real time     38.7054
       DOS:  cpu time      0.1482: real time      0.1485
    CHARGE:  cpu time      1.9100: real time      1.9151
    MIXING:  cpu time      0.0995: real time      0.0998
    --------------------------------------------
      LOOP:  cpu time     40.9828: real time     43.3570

 eigenvalue-minimisations  :  1392
 total energy-change (2. order) :-0.3452539E+03  (-0.1141823E+00)
 number of electron     256.0000052 magnetization 
 augmentation part      -14.6463834 magnetization 

 Broyden mixing:
  rms(total) = 0.56906E-01    rms(broyden)= 0.56902E-01
  rms(prec ) = 0.59510E-01
  weight for this iteration     100.00

 Free energy of the ion-electron system (eV)
  ---------------------------------------------------
  alpha Z        PSCENC =       107.06840384
  Ewald energy   TEWEN  =     -7296.75009883
  -Hartree energ DENC   =      -482.72665457
  -exchange      EXHF   =         0.00000000
  -V(xc)+E(xc)   XCENC  =      -575.46461603
  PAW double counting   =     31941.73568579   -30822.96587214
  entropy T*S    EENTRO =        -0.00000000
  eigenvalues    EBANDS =       187.89726511
  atomic energy  EATOM  =      6595.95197522
  Solvation  Ediel_sol  =         0.00000000
  ---------------------------------------------------
  free energy    TOTEN  =      -345.25391161 eV

  energy without entropy =     -345.25391161  energy(sigma->0) =     -345.25391161


--------------------------------------------------------------------------------------------------------




--------------------------------------- Iteration      1(   2)  ---------------------------------------


    POTLOK:  cpu time      0.5622: real time      0.5641
    SETDIJ:  cpu time      0.0408: real time      0.0409
    EDDIAG:  cpu time      7.7312: real time      7.7516
  RMM-DIIS:  cpu time     24.6013: real time     24.6636
    ORTHCH:  cpu time      0.1180: real time      0.1183
       DOS:  cpu time      0.1283: real time      0.1286
    CHARGE:  cpu time      2.7589: real time      2.7660
    MIXING:  cpu time      0.3110: real time      0.3119
    --------------------------------------------
      LOOP:  cpu time     36.2517: real time     36.3450

 eigenvalue-minimisations  :  1290
 total energy-change (2. order) :-0.6001596E-02  (-0.6443713E-02)
 number of electron     256.0000052 magnetization 
 augmentation part      -14.6468740 magnetization 

 Broyden mixing:
  rms(total) = 0.20767E-01    rms(broyden)= 0.20765E-01
  rms(prec ) = 0.24543E-01
  weight for this iteration     100.00

 eigenvalues of (default mixing * dielectric matrix)
  average eigenvalue GAMMA=   1.3378
  1.3378

 Free energy of the ion-electron system (eV)
  ---------------------------------------------------
  alpha Z        PSCENC =       107.06840384
  Ewald energy   TEWEN  =     -7296.75009883
  -Hartree energ DENC   =      -482.67370253
  -exchange      EXHF   =         0.00000000
  -V(xc)+E(xc)   XCENC  =      -575.46477981
  PAW double counting   =     31962.14966740   -30843.38049226
  entropy T*S    EENTRO =        -0.00000000
  eigenvalues    EBANDS =       187.83911376
  atomic energy  EATOM  =      6595.95197522
  Solvation  Ediel_sol  =         0.00000000
  ---------------------------------------------------
  free energy    TOTEN  =      -345.25991320 eV

  energy without entropy =     -345.25991320  energy(sigma->0) =     -345.25991320


--------------------------------------------------------------------------------------------------------




--------------------------------------- Iteration      1(   3)  ---------------------------------------


    POTLOK:  cpu time      0.0311: real time      0.0437
    SETDIJ:  cpu time      0.1050: real time      0.1053
    EDDIAG:  cpu time      8.4155: real time      8.4373
  RMM-DIIS:  cpu time     23.1662: real time     23.2248
    ORTHCH:  cpu time      0.3378: real time      0.3389
       DOS:  cpu time      0.1078: real time      0.1081
    CHARGE:  cpu time      2.7599: real time      2.7670
    MIXING:  cpu time      0.0033: real time      0.0033
    --------------------------------------------
      LOOP:  cpu time     34.9266: real time     35.0284

 eigenvalue-minimisations  :  1506
 total energy-change (2. order) :-0.5696777E-03  (-0.9762205E-03)
 number of electron     256.0000052 magnetization 
 augmentation part      -14.6475372 magnetization 

 Broyden mixing:
  rms(total) = 0.92617E-02    rms(broyden)= 0.92611E-02
  rms(prec ) = 0.11194E-01
  weight for this iteration     100.00

 eigenvalues of (default mixing * dielectric matrix)
  average eigenvalue GAMMA=   1.6493
  1.6493  1.6493

 Free energy of the ion-electron system (eV)
  ---------------------------------------------------
  alpha Z        PSCENC =       107.06840384
  Ewald energy   TEWEN  =     -7296.75009883
  -Hartree energ DENC   =      -482.62691777
  -exchange      EXHF   =         0.00000000
  -V(xc)+E(xc)   XCENC  =      -575.46578763
  PAW double counting   =     31970.41638114   -30851.64835614
  entropy T*S    EENTRO =        -0.00000000
  eigenvalues    EBANDS =       187.79391729
  atomic energy  EATOM  =      6595.95197522
  Solvation  Ediel_sol  =         0.00000000
  ---------------------------------------------------
  free energy    TOTEN  =      -345.26048288 eV

  energy without entropy =     -345.26048288  energy(sigma->0) =     -345.26048288


--------------------------------------------------------------------------------------------------------




--------------------------------------- Iteration      1(   4)  ---------------------------------------


    POTLOK:  cpu time      0.1669: real time      0.1672
    SETDIJ:  cpu time      0.0324: real time      0.0324
    EDDIAG:  cpu time      4.9653: real time      4.9783
  RMM-DIIS:  cpu time     26.1429: real time     26.2094
    ORTHCH:  cpu time      0.1785: real time      0.1789
       DOS:  cpu time      0.0763: real time      0.0765
    CHARGE:  cpu time      2.3233: real time      2.3294
    MIXING:  cpu time      0.0003: real time      0.0003
    --------------------------------------------
      LOOP:  cpu time     33.8859: real time     33.9725

 eigenvalue-minimisations  :  1568
 total energy-change (2. order) :-0.8164048E-04  (-0.1823257E-03)
 number of electron     256.0000052 magnetization 
 augmentation part      -14.6477310 magnetization 

 Broyden mixing:
  rms(total) = 0.46606E-02    rms(broyden)= 0.46604E-02
  rms(prec ) = 0.51806E-02
  weight for this iteration     100.00

 eigenvalues of (default mixing * dielectric matrix)
  average eigenvalue GAMMA=   1.7843
  1.0255  2.3741  1.9534

 Free energy of the ion-electron system (eV)
  ---------------------------------------------------
  alpha Z        PSCENC =       107.06840384
  Ewald energy   TEWEN  =     -7296.75009883
  -Hartree energ DENC   =      -482.60775243
  -exchange      EXHF   =         0.00000000
  -V(xc)+E(xc)   XCENC  =      -575.46598989
  PAW double counting   =     31966.42619713   -30847.66010658
  entropy T*S    EENTRO =        -0.00000000
  eigenvalues    EBANDS =       187.77680700
  atomic energy  EATOM  =      6595.95197522
  Solvation  Ediel_sol  =         0.00000000
  ---------------------------------------------------
  free energy    TOTEN  =      -345.26056452 eV

  energy without entropy =     -345.26056452  energy(sigma->0) =     -345.26056452


--------------------------------------------------------------------------------------------------------




--------------------------------------- Iteration      1(   5)  ---------------------------------------


    POTLOK:  cpu time      0.0853: real time      0.0866
    SETDIJ:  cpu time      0.1412: real time      0.1415
    EDDIAG:  cpu time      4.2054: real time      4.2164
  RMM-DIIS:  cpu time     22.2958: real time     22.3520
    ORTHCH:  cpu time      0.1741: real time      0.1748
       DOS:  cpu time      0.0318: real time      0.0319
    --------------------------------------------
      LOOP:  cpu time     26.9335: real time     27.0033

 eigenvalue-minimisations  :  1148
 total energy-change (2. order) :-0.2393718E-04  (-0.3278039E-04)
 number of electron     256.0000052 magnetization 
 augmentation part      -14.6477310 magnetization 

 Free energy of the ion-electron system (eV)
  ---------------------------------------------------
  alpha Z        PSCENC =       107.06840384
  Ewald energy   TEWEN  =     -7296.75009883
  -Hartree energ DENC   =      -482.60136815
  -exchange      EXHF   =         0.00000000
  -V(xc)+E(xc)   XCENC  =      -575.46609755
  PAW double counting   =     31959.81812178   -30841.05335218
  entropy T*S    EENTRO =        -0.00000000
  eigenvalues    EBANDS =       187.77182741
  atomic energy  EATOM  =      6595.95197522
  Solvation  Ediel_sol  =         0.00000000
  ---------------------------------------------------
  free energy    TOTEN  =      -345.26058846 eV

  energy without entropy =     -345.26058846  energy(sigma->0) =     -345.26058846


--------------------------------------------------------------------------------------------------------




 average (electrostatic) potential at core
  the test charge radii are     0.9892
  (the norm of the test charge is              1.0000)
       1 -83.2675       2 -83.3175       3 -83.3062       4 -83.3182       5 -83.3275
       6 -83.3171       7 -83.3231       8 -83.3391       9 -83.3027      10 -83.3546
      11 -83.3368      12 -83.3394      13 -83.3120      14 -83.3220      15 -83.3325
      16 -83.3211      17 -83.3299      18 -83.2850      19 -83.3346      20 -83.3413
      21 -83.3162      22 -83.3168      23 -83.3569      24 -83.2825      25 -83.3273
      26 -83.3358      27 -83.3051      28 -83.2684      29 -83.2792      30 -83.3087
      31 -83.2865      32 -83.3552      33 -83.3236      34 -83.2909      35 -83.3239
      36 -83.3409      37 -83.3214      38 -83.3077      39 -83.3077      40 -83.3173
      41 -83.2963      42 -83.3378      43 -83.3098      44 -83.2758      45 -83.2942
      46 -83.3130      47 -83.2943      48 -83.3463      49 -83.3303      50 -83.3461
      51 -83.2798      52 -83.3109      53 -83.2781      54 -83.3126      55 -83.3173
      56 -83.3275      57 -83.2870      58 -83.2740      59 -83.3339      60 -83.3294
      61 -83.3439      62 -83.3175      63 -83.3280      64 -83.2534
 
 
 
 E-fermi :   6.0082     XC(G=0):  -9.3926     alpha+bet :-11.9195

 Fermi energy:         6.0082244867

 k-point     1 :       0.2500    0.2500    0.2500
  band No.  band energies     occupation 
      1      -5.9708      2.00000
      2      -5.4807      2.00000
      3      -5.4398      2.00000
      4      -5.3691      2.00000
      5      -4.9660      2.00000
      6      -4.9281      2.00000
      7      -4.8399      2.00000
      8      -4.4751      2.00000
      9      -4.4248      2.00000
     10      -4.3954      2.00000
     11      -4.3186      2.00000
     12      -4.0371      2.00000
     13      -4.0020      2.00000
     14      -3.9766      2.00000
     15      -3.9407      2.00000
     16      -3.8945      2.00000
     17      -3.8664      2.00000
     18      -3.7592      2.00000
     19      -3.7276      2.00000
     20      -3.6738      2.00000
     21      -3.2833      2.00000
     22      -3.2500      2.00000
     23      -3.1679      2.00000
     24      -2.9266      2.00000
     25      -2.9051      2.00000
     26      -2.8309      2.00000
     27      -2.7552      2.00000
     28      -2.7392      2.00000
     29      -2.6820      2.00000
     30      -2.6606      2.00000
     31      -2.6387      2.00000
     32      -2.5898      2.00000
     33      -1.2055      2.00000
     34      -1.1971      2.00000
     35      -1.1718      2.00000
     36      -1.1389      2.00000
     37      -1.1343      2.00000
     38      -1.1032      2.00000
     39      -1.0522      2.00000
     40      -1.0309      2.00000
     41      -1.0047      2.00000
     42      -0.9565      2.00000
     43      -0.9216      2.00000
     44      -0.9027      2.00000
     45      -0.8798      2.00000
     46      -0.8473      2.00000
     47      -0.8085      2.00000
     48      -0.1612      2.00000
     49      -0.1075      2.00000
     50      -0.0807      2.00000
     51      -0.0573      2.00000
     52      -0.0307      2.00000
     53      -0.0074      2.00000
     54       0.0207      2.00000
     55       0.8178      2.00000
     56       0.8461      2.00000
     57       0.8603      2.00000
     58       1.1349      2.00000
     59       1.1603      2.00000
     60       1.1783      2.00000
     61       1.6903      2.00000
     62       1.7015      2.00000
     63       1.7260      2.00000
     64       1.7321      2.00000
     65       1.7608      2.00000
     66       1.7701      2.00000
     67       1.8029      2.00000
     68       1.8229      2.00000
     69       1.8338      2.00000
     70       2.3271      2.00000
     71       2.3356      2.00000
     72       2.3617      2.00000
     73       2.4079      2.00000
     74       2.4341      2.00000
     75       2.4562      2.00000
     76       2.4718      2.00000
     77       2.5029      2.00000
     78       2.5254      2.00000
     79       2.5669      2.00000
     80       2.5810      2.00000
     81       2.6116      2.00000
     82       2.7717      2.00000
     83       2.8148      2.00000
     84       2.8283      2.00000
     85       2.8564      2.00000
     86       2.8873      2.00000
     87       2.9053      2.00000
     88       3.0804      2.00000
     89       3.0936      2.00000
     90       3.1070      2.00000
     91       3.1292      2.00000
     92       3.1494      2.00000
     93       3.1692      2.00000
     94       3.4243      2.00000
     95       3.4391      2.00000
     96       3.4511      2.00000
     97       3.4939      2.00000
     98       3.5411      2.00000
     99       3.5555      2.00000
    100       3.5578      2.00000
    101       3.6101      2.00000
    102       3.6299      2.00000
    103       3.7836      2.00000
    104       3.8254      2.00000
    105       3.8470      2.00000
    106       3.8800      2.00000
    107       3.9019      2.00000
    108       3.9142      2.00000
    109       3.9256      2.00000
    110       3.9495      2.00000
    111       3.9696      2.00000
    112       4.1760      2.00000
    113       4.2424      2.00000
    114       4.2583      2.00000
    115       4.2908      2.00000
    116       4.4527      2.00000
    117       4.4867      2.00000
    118       4.5080      2.00000
    119       4.5439      2.00000
    120       4.5507      2.00000
    121       4.5758      2.00000
    122       4.6960      2.00000
    123       4.7331      2.00000
    124       5.0039      2.00000
    125       5.0453      2.00000
    126       5.0761      2.00000
    127       5.4997      2.00000
    128       5.5286      2.00000
    129       6.6299      0.00000
    130       6.6864      0.00000
    131       6.7273      0.00000
    132       7.1086      0.00000
    133       7.1274      0.00000
    134       7.1581      0.00000
    135       7.3926      0.00000
    136       7.5900      0.00000
    137       7.6042      0.00000
    138       7.6259      0.00000
    139       7.6778      0.00000
    140       7.7544      0.00000
    141       7.7670      0.00000
    142       7.8909      0.00000
    143       7.9112      0.00000
    144       7.9322      0.00000
    145       7.9562      0.00000
    146       7.9820      0.00000
    147       8.0067      0.00000
    148       8.1033      0.00000
    149       8.1337      0.00000
    150       8.1456      0.00000
    151       8.1746      0.00000
    152       8.2116      0.00000
    153       8.2392      0.00000
    154       8.2686      0.00000
    155       8.4621      0.00000
    156       8.4776      0.00000
    157       8.4864      0.00000
    158       8.5197      0.00000
    159       8.5978      0.00000
    160       8.6339      0.00000
    161       8.6618      0.00000

 k-point     2 :       0.2500   -0.2500    0.2500
  band No.  band energies     occupation 
      1      -5.9709      2.00000
      2      -5.4810      2.00000
      3      -5.4397      2.00000
      4      -5.3683      2.00000
      5      -4.9646      2.00000
      6      -4.9282      2.00000
      7      -4.8403      2.00000
      8      -4.4766      2.00000
      9      -4.4292      2.00000
     10      -4.3928      2.00000
     11      -4.3195      2.00000
     12      -4.0674      2.00000
     13      -3.9938      2.00000
     14      -3.9615      2.00000
     15      -3.9289      2.00000
     16      -3.8917      2.00000
     17      -3.8713      2.00000
     18      -3.7405      2.00000
     19      -3.7243      2.00000
     20      -3.6880      2.00000
     21      -3.2850      2.00000
     22      -3.2533      2.00000
     23      -3.1707      2.00000
     24      -2.9225      2.00000
     25      -2.8960      2.00000
     26      -2.8568      2.00000
     27      -2.7740      2.00000
     28      -2.6989      2.00000
     29      -2.6842      2.00000
     30      -2.6705      2.00000
     31      -2.6395      2.00000
     32      -2.5846      2.00000
     33      -1.2096      2.00000
     34      -1.1954      2.00000
     35      -1.1730      2.00000
     36      -1.1466      2.00000
     37      -1.1258      2.00000
     38      -1.1061      2.00000
     39      -1.0707      2.00000
     40      -1.0521      2.00000
     41      -0.9938      2.00000
     42      -0.9456      2.00000
     43      -0.9261      2.00000
     44      -0.8968      2.00000
     45      -0.8739      2.00000
     46      -0.8368      2.00000
     47      -0.7951      2.00000
     48      -0.1588      2.00000
     49      -0.1199      2.00000
     50      -0.0682      2.00000
     51      -0.0539      2.00000
     52      -0.0300      2.00000
     53      -0.0157      2.00000
     54       0.0142      2.00000
     55       0.8118      2.00000
     56       0.8449      2.00000
     57       0.8739      2.00000
     58       1.1403      2.00000
     59       1.1582      2.00000
     60       1.1759      2.00000
     61       1.6868      2.00000
     62       1.7038      2.00000
     63       1.7234      2.00000
     64       1.7356      2.00000
     65       1.7520      2.00000
     66       1.7761      2.00000
     67       1.7984      2.00000
     68       1.8177      2.00000
     69       1.8330      2.00000
     70       2.3108      2.00000
     71       2.3415      2.00000
     72       2.3583      2.00000
     73       2.4076      2.00000
     74       2.4451      2.00000
     75       2.4592      2.00000
     76       2.4694      2.00000
     77       2.4922      2.00000
     78       2.5105      2.00000
     79       2.5717      2.00000
     80       2.5847      2.00000
     81       2.6000      2.00000
     82       2.7817      2.00000
     83       2.8158      2.00000
     84       2.8426      2.00000
     85       2.8480      2.00000
     86       2.8860      2.00000
     87       2.9039      2.00000
     88       3.0849      2.00000
     89       3.1046      2.00000
     90       3.1073      2.00000
     91       3.1286      2.00000
     92       3.1420      2.00000
     93       3.1688      2.00000
     94       3.4259      2.00000
     95       3.4570      2.00000
     96       3.4890      2.00000
     97       3.5037      2.00000
     98       3.5209      2.00000
     99       3.5536      2.00000
    100       3.5784      2.00000
    101       3.6044      2.00000
    102       3.6220      2.00000
    103       3.7977      2.00000
    104       3.8365      2.00000
    105       3.8483      2.00000
    106       3.8728      2.00000
    107       3.8780      2.00000
    108       3.9088      2.00000
    109       3.9315      2.00000
    110       3.9409      2.00000
    111       3.9608      2.00000
    112       4.1882      2.00000
    113       4.2354      2.00000
    114       4.2565      2.00000
    115       4.2663      2.00000
    116       4.4525      2.00000
    117       4.4887      2.00000
    118       4.5027      2.00000
    119       4.5229      2.00000
    120       4.5676      2.00000
    121       4.5815      2.00000
    122       4.7097      2.00000
    123       4.7434      2.00000
    124       5.0031      2.00000
    125       5.0448      2.00000
    126       5.0588      2.00000
    127       5.4982      2.00000
    128       5.5284      2.00000
    129       6.6495      0.00000
    130       6.6845      0.00000
    131       6.6999      0.00000
    132       7.1135      0.00000
    133       7.1299      0.00000
    134       7.1609      0.00000
    135       7.3892      0.00000
    136       7.5988      0.00000
    137       7.6165      0.00000
    138       7.6270      0.00000
    139       7.7071      0.00000
    140       7.7381      0.00000
    141       7.7657      0.00000
    142       7.8918      0.00000
    143       7.9098      0.00000
    144       7.9346      0.00000
    145       7.9454      0.00000
    146       7.9726      0.00000
    147       8.0161      0.00000
    148       8.0609      0.00000
    149       8.1210      0.00000
    150       8.1514      0.00000
    151       8.1816      0.00000
    152       8.2091      0.00000
    153       8.2248      0.00000
    154       8.2627      0.00000
    155       8.4681      0.00000
    156       8.4764      0.00000
    157       8.4860      0.00000
    158       8.5648      0.00000
    159       8.5994      0.00000
    160       8.6377      0.00000
    161       8.6690      0.00000

 k-point     3 :      -0.2500    0.2500    0.2500
  band No.  band energies     occupation 
      1      -5.9728      2.00000
      2      -5.4638      2.00000
      3      -5.4340      2.00000
      4      -5.3877      2.00000
      5      -4.9527      2.00000
      6      -4.9146      2.00000
      7      -4.8819      2.00000
      8      -4.4913      2.00000
      9      -4.4179      2.00000
     10      -4.3841      2.00000
     11      -4.3192      2.00000
     12      -4.0329      2.00000
     13      -3.9835      2.00000
     14      -3.9460      2.00000
     15      -3.9358      2.00000
     16      -3.9084      2.00000
     17      -3.8847      2.00000
     18      -3.7523      2.00000
     19      -3.7251      2.00000
     20      -3.6794      2.00000
     21      -3.2918      2.00000
     22      -3.2475      2.00000
     23      -3.2077      2.00000
     24      -2.9297      2.00000
     25      -2.8871      2.00000
     26      -2.8334      2.00000
     27      -2.7619      2.00000
     28      -2.7025      2.00000
     29      -2.6812      2.00000
     30      -2.6519      2.00000
     31      -2.6433      2.00000
     32      -2.6076      2.00000
     33      -1.2098      2.00000
     34      -1.1961      2.00000
     35      -1.1746      2.00000
     36      -1.1487      2.00000
     37      -1.1332      2.00000
     38      -1.1115      2.00000
     39      -1.0876      2.00000
     40      -1.0361      2.00000
     41      -1.0031      2.00000
     42      -0.9648      2.00000
     43      -0.9233      2.00000
     44      -0.9033      2.00000
     45      -0.8604      2.00000
     46      -0.8180      2.00000
     47      -0.7630      2.00000
     48      -0.1501      2.00000
     49      -0.1264      2.00000
     50      -0.0900      2.00000
     51      -0.0530      2.00000
     52      -0.0297      2.00000
     53      -0.0158      2.00000
     54      -0.0008      2.00000
     55       0.8248      2.00000
     56       0.8536      2.00000
     57       0.8788      2.00000
     58       1.1485      2.00000
     59       1.1680      2.00000
     60       1.1823      2.00000
     61       1.6763      2.00000
     62       1.7079      2.00000
     63       1.7160      2.00000
     64       1.7407      2.00000
     65       1.7663      2.00000
     66       1.7738      2.00000
     67       1.7941      2.00000
     68       1.8105      2.00000
     69       1.8293      2.00000
     70       2.3242      2.00000
     71       2.3392      2.00000
     72       2.3596      2.00000
     73       2.4007      2.00000
     74       2.4146      2.00000
     75       2.4566      2.00000
     76       2.4674      2.00000
     77       2.5003      2.00000
     78       2.5107      2.00000
     79       2.5570      2.00000
     80       2.5876      2.00000
     81       2.5954      2.00000
     82       2.7891      2.00000
     83       2.8043      2.00000
     84       2.8329      2.00000
     85       2.8548      2.00000
     86       2.8698      2.00000
     87       2.9021      2.00000
     88       3.0848      2.00000
     89       3.0890      2.00000
     90       3.1099      2.00000
     91       3.1159      2.00000
     92       3.1324      2.00000
     93       3.1425      2.00000
     94       3.4324      2.00000
     95       3.4640      2.00000
     96       3.4870      2.00000
     97       3.5106      2.00000
     98       3.5273      2.00000
     99       3.5702      2.00000
    100       3.5858      2.00000
    101       3.6027      2.00000
    102       3.6196      2.00000
    103       3.7961      2.00000
    104       3.8465      2.00000
    105       3.8701      2.00000
    106       3.8869      2.00000
    107       3.9082      2.00000
    108       3.9099      2.00000
    109       3.9318      2.00000
    110       3.9473      2.00000
    111       3.9595      2.00000
    112       4.1948      2.00000
    113       4.2345      2.00000
    114       4.2443      2.00000
    115       4.2615      2.00000
    116       4.4691      2.00000
    117       4.4757      2.00000
    118       4.5013      2.00000
    119       4.5461      2.00000
    120       4.5820      2.00000
    121       4.6133      2.00000
    122       4.7123      2.00000
    123       4.7210      2.00000
    124       5.0037      2.00000
    125       5.0126      2.00000
    126       5.0554      2.00000
    127       5.4982      2.00000
    128       5.5084      2.00000
    129       6.6239      0.00000
    130       6.6680      0.00000
    131       6.7118      0.00000
    132       7.1188      0.00000
    133       7.1317      0.00000
    134       7.1498      0.00000
    135       7.3951      0.00000
    136       7.5970      0.00000
    137       7.6119      0.00000
    138       7.6313      0.00000
    139       7.6963      0.00000
    140       7.7544      0.00000
    141       7.7667      0.00000
    142       7.8895      0.00000
    143       7.9207      0.00000
    144       7.9270      0.00000
    145       7.9520      0.00000
    146       7.9706      0.00000
    147       8.0049      0.00000
    148       8.0985      0.00000
    149       8.1344      0.00000
    150       8.1571      0.00000
    151       8.1816      0.00000
    152       8.2047      0.00000
    153       8.2129      0.00000
    154       8.2600      0.00000
    155       8.4679      0.00000
    156       8.4763      0.00000
    157       8.4900      0.00000
    158       8.5531      0.00000
    159       8.5947      0.00000
    160       8.6246      0.00000
    161       8.6446      0.00000

 k-point     4 :      -0.2500   -0.2500    0.2500
  band No.  band energies     occupation 
      1      -5.9720      2.00000
      2      -5.4556      2.00000
      3      -5.4440      2.00000
      4      -5.3915      2.00000
      5      -4.9459      2.00000
      6      -4.9194      2.00000
      7      -4.8789      2.00000
      8      -4.4742      2.00000
      9      -4.3992      2.00000
     10      -4.3966      2.00000
     11      -4.3331      2.00000
     12      -4.0171      2.00000
     13      -3.9991      2.00000
     14      -3.9521      2.00000
     15      -3.9395      2.00000
     16      -3.9296      2.00000
     17      -3.8660      2.00000
     18      -3.7647      2.00000
     19      -3.7236      2.00000
     20      -3.6921      2.00000
     21      -3.2580      2.00000
     22      -3.2420      2.00000
     23      -3.2032      2.00000
     24      -2.9306      2.00000
     25      -2.8822      2.00000
     26      -2.8549      2.00000
     27      -2.7371      2.00000
     28      -2.7205      2.00000
     29      -2.6892      2.00000
     30      -2.6616      2.00000
     31      -2.6348      2.00000
     32      -2.6074      2.00000
     33      -1.2208      2.00000
     34      -1.1926      2.00000
     35      -1.1628      2.00000
     36      -1.1456      2.00000
     37      -1.1240      2.00000
     38      -1.1017      2.00000
     39      -1.0696      2.00000
     40      -1.0352      2.00000
     41      -1.0057      2.00000
     42      -0.9639      2.00000
     43      -0.9129      2.00000
     44      -0.8997      2.00000
     45      -0.8662      2.00000
     46      -0.8514      2.00000
     47      -0.7971      2.00000
     48      -0.1523      2.00000
     49      -0.1017      2.00000
     50      -0.0768      2.00000
     51      -0.0626      2.00000
     52      -0.0251      2.00000
     53      -0.0100      2.00000
     54      -0.0045      2.00000
     55       0.8237      2.00000
     56       0.8433      2.00000
     57       0.8608      2.00000
     58       1.1468      2.00000
     59       1.1587      2.00000
     60       1.1790      2.00000
     61       1.6794      2.00000
     62       1.7064      2.00000
     63       1.7272      2.00000
     64       1.7364      2.00000
     65       1.7627      2.00000
     66       1.7678      2.00000
     67       1.7975      2.00000
     68       1.8164      2.00000
     69       1.8226      2.00000
     70       2.3230      2.00000
     71       2.3488      2.00000
     72       2.3640      2.00000
     73       2.4166      2.00000
     74       2.4267      2.00000
     75       2.4643      2.00000
     76       2.4707      2.00000
     77       2.4923      2.00000
     78       2.5192      2.00000
     79       2.5633      2.00000
     80       2.5845      2.00000
     81       2.5951      2.00000
     82       2.7889      2.00000
     83       2.8286      2.00000
     84       2.8386      2.00000
     85       2.8508      2.00000
     86       2.8708      2.00000
     87       2.8949      2.00000
     88       3.0696      2.00000
     89       3.0997      2.00000
     90       3.1102      2.00000
     91       3.1213      2.00000
     92       3.1482      2.00000
     93       3.1694      2.00000
     94       3.4357      2.00000
     95       3.4615      2.00000
     96       3.4805      2.00000
     97       3.5053      2.00000
     98       3.5201      2.00000
     99       3.5470      2.00000
    100       3.5678      2.00000
    101       3.6011      2.00000
    102       3.6190      2.00000
    103       3.8117      2.00000
    104       3.8342      2.00000
    105       3.8580      2.00000
    106       3.8818      2.00000
    107       3.8928      2.00000
    108       3.9018      2.00000
    109       3.9258      2.00000
    110       3.9409      2.00000
    111       3.9637      2.00000
    112       4.1803      2.00000
    113       4.2272      2.00000
    114       4.2435      2.00000
    115       4.2740      2.00000
    116       4.4564      2.00000
    117       4.4939      2.00000
    118       4.5027      2.00000
    119       4.5436      2.00000
    120       4.5583      2.00000
    121       4.5797      2.00000
    122       4.7080      2.00000
    123       4.7484      2.00000
    124       5.0129      2.00000
    125       5.0418      2.00000
    126       5.0495      2.00000
    127       5.4939      2.00000
    128       5.5327      2.00000
    129       6.6370      0.00000
    130       6.6741      0.00000
    131       6.7083      0.00000
    132       7.1211      0.00000
    133       7.1323      0.00000
    134       7.1420      0.00000
    135       7.4003      0.00000
    136       7.5843      0.00000
    137       7.6118      0.00000
    138       7.6207      0.00000
    139       7.7053      0.00000
    140       7.7350      0.00000
    141       7.7711      0.00000
    142       7.8974      0.00000
    143       7.9224      0.00000
    144       7.9384      0.00000
    145       7.9526      0.00000
    146       7.9767      0.00000
    147       8.0028      0.00000
    148       8.1144      0.00000
    149       8.1326      0.00000
    150       8.1527      0.00000
    151       8.1648      0.00000
    152       8.2075      0.00000
    153       8.2158      0.00000
    154       8.2701      0.00000
    155       8.4649      0.00000
    156       8.4796      0.00000
    157       8.4921      0.00000
    158       8.5596      0.00000
    159       8.5876      0.00000
    160       8.6319      0.00000
    161       8.6497      0.00000


--------------------------------------------------------------------------------------------------------


 soft charge-density along one line, spin component           1
         0         1         2         3         4         5         6         7         8         9
 total charge-density along one line
 
 pseudopotential strength for first ion, spin component:           1
 18.416  25.693   0.001  -0.001  -0.001   0.002  -0.002  -0.001
 25.693  35.851   0.002  -0.002  -0.001   0.003  -0.003  -0.002
  0.001   0.002   4.178  -0.000   0.000   7.786  -0.000   0.000
 -0.001  -0.002  -0.000   4.179   0.000  -0.000   7.786   0.000
 -0.001  -0.001   0.000   0.000   4.178   0.000   0.000   7.786
  0.002   0.003   7.786  -0.000   0.000  14.520  -0.001   0.000
 -0.002  -0.003  -0.000   7.786   0.000  -0.001  14.520   0.000
 -0.001  -0.002   0.000   0.000   7.786   0.000   0.000  14.520
 total augmentation occupancy for first ion, spin component:           1
  5.979  -2.305   0.013   0.124  -0.203  -0.004  -0.045   0.072
 -2.305   1.000   0.001  -0.075   0.095   0.000   0.024  -0.033
  0.013   0.001   3.306  -0.181  -0.010  -0.801   0.055   0.005
  0.124  -0.075  -0.181   3.280   0.073   0.055  -0.791  -0.023
 -0.203   0.095  -0.010   0.073   3.333   0.005  -0.023  -0.810
 -0.004   0.000  -0.801   0.055   0.005   0.202  -0.016  -0.002
 -0.045   0.024   0.055  -0.791  -0.023  -0.016   0.199   0.007
  0.072  -0.033   0.005  -0.023  -0.810  -0.002   0.007   0.205


------------------------ aborting loop because EDIFF is reached ----------------------------------------


    CHARGE:  cpu time      2.5655: real time      2.5719
    FORLOC:  cpu time      0.0138: real time      0.0138
    FORNL :  cpu time      8.9135: real time      8.9361
    STRESS:  cpu time     35.4085: real time     35.4990
    FORCOR:  cpu time      0.1121: real time      0.1123
    FORHAR:  cpu time      0.0625: real time      0.0627
    MIXING:  cpu time      0.0004: real time      0.0004
    OFIELD:  cpu time      0.0000: real time      0.0000

  FORCE on cell =-STRESS in cart. coord.  units (eV):
  Direction    XX          YY          ZZ          XY          YZ          ZX
  --------------------------------------------------------------------------------------
  Alpha Z   107.06840   107.06840   107.06840
  Ewald   -2433.01748 -2433.80982 -2429.96798     9.63984    -5.24425    13.01016
  Hartree   160.61255   159.76112   162.22598     1.30791    -0.96669     2.54993
  E(xc)    -811.24366  -811.22690  -811.26574    -0.09701     0.03293    -0.10939
  Local    -942.26390  -940.50067  -947.02844   -10.57801     5.96834   -14.99752
  n-local  2492.33687  2492.12531  2492.73556     2.12794    -0.81588     2.44142
  augment  -372.02890  -372.01316  -372.05428    -0.13463     0.05257    -0.15318
  Kinetic  1809.06225  1809.15460  1808.98009    -0.65558     0.25162    -0.61991
  Fock        0.00000     0.00000     0.00000     0.00000     0.00000     0.00000
  -------------------------------------------------------------------------------------
  Total      10.52611    10.55887    10.69359     1.61046    -0.72135     2.12152
  in kB      13.09560    13.13636    13.30396     2.00359    -0.89743     2.63940
  external pressure =       13.18 kB  Pullay stress =        0.00 kB


 VOLUME and BASIS-vectors are now :
 -----------------------------------------------------------------------------
  energy-cutoff  :      250.00
  volume of cell :     1287.81
      direct lattice vectors                 reciprocal lattice vectors
    10.878787600  0.000000000  0.000000000     0.091922008  0.000077520  0.000104677
    -0.009175870 10.880601470  0.000000000     0.000000000  0.091906684 -0.000062187
    -0.012395620  0.007361610 10.879770220     0.000000000  0.000000000  0.091913706

  length of vectors
    10.878787600 10.880605339 10.879779772     0.091922100  0.091906705  0.091913706


 FORCES acting on ions
    electron-ion (+dipol)            ewald-force                    non-local-force                 convergence-correction
 -----------------------------------------------------------------------------------------------
   -.487E+01 0.233E+01 0.508E+01   0.428E+01 -.245E+01 -.455E+01   0.155E+01 -.239E+00 -.588E+00   0.138E-02 0.466E-03 -.495E-03
   -.806E+00 0.572E+01 -.143E+01   0.520E+00 -.546E+01 0.112E+01   -.103E+00 -.631E+00 0.327E+00   0.492E-03 0.446E-03 0.338E-04
   -.301E+01 0.337E+00 0.513E+01   0.266E+01 -.555E+00 -.466E+01   0.541E+00 0.215E+00 -.785E+00   0.107E-02 -.116E-03 0.721E-03
   0.889E+00 0.343E+01 0.292E+01   -.984E+00 -.348E+01 -.264E+01   0.262E+00 -.643E+00 -.693E+00   0.459E-03 0.611E-03 -.749E-04
   -.311E+00 0.334E+01 0.364E+01   0.212E+00 -.346E+01 -.356E+01   -.231E+00 0.200E+00 -.183E+00   0.110E-02 0.156E-02 -.517E-03
   -.356E+01 0.339E+01 0.297E+01   0.344E+01 -.325E+01 -.268E+01   0.624E+00 -.103E+00 -.465E+00   -.124E-03 0.223E-03 -.166E-03
   -.211E+01 0.227E+01 0.183E+01   0.223E+01 -.254E+01 -.157E+01   0.339E+00 0.225E+00 -.217E+00   0.785E-04 0.514E-03 -.393E-03
   0.251E+01 0.331E+00 -.147E+01   -.252E+01 -.289E+00 0.153E+01   -.495E+00 0.422E+00 0.109E+01   0.553E-03 0.464E-03 0.889E-03
   0.348E+01 0.278E+01 -.462E+01   -.358E+01 -.262E+01 0.443E+01   -.166E-01 -.275E+00 0.718E+00   0.435E-03 0.800E-03 0.497E-03
   0.157E+01 0.150E+01 -.295E+01   -.148E+01 -.159E+01 0.260E+01   0.811E-01 -.279E+00 -.476E-01   -.190E-04 0.479E-03 -.559E-03
   0.438E+01 0.564E+01 -.397E+01   -.424E+01 -.509E+01 0.374E+01   -.471E+00 -.999E+00 0.778E+00   0.322E-03 0.586E-03 -.328E-03
   0.515E+01 0.348E+01 -.203E+01   -.480E+01 -.330E+01 0.170E+01   -.496E+00 -.234E+00 0.196E+00   -.286E-03 0.589E-03 -.496E-04
   0.656E+01 0.163E+01 -.998E+00   -.642E+01 -.192E+01 0.119E+01   -.512E+00 -.194E-02 -.554E+00   0.236E-04 0.469E-04 -.424E-03
   0.983E-01 -.149E+01 0.243E+00   0.404E-01 0.144E+01 -.102E-01   -.569E+00 0.130E+00 -.910E-01   -.816E-03 0.167E-03 0.121E-03
   -.169E+01 0.532E+01 -.425E+01   0.145E+01 -.515E+01 0.404E+01   0.435E+00 -.716E+00 0.113E+01   -.390E-03 0.758E-03 0.660E-03
   0.232E+01 -.110E+01 0.156E+01   -.237E+01 0.796E+00 -.113E+01   -.249E+00 0.535E+00 -.347E+00   0.112E-02 0.282E-03 -.170E-03
   0.820E+00 -.277E+01 -.285E+00   -.906E+00 0.254E+01 0.488E-01   0.161E+00 0.325E+00 0.447E+00   0.858E-03 -.553E-03 0.292E-03
   0.446E+01 -.579E+01 0.256E+01   -.399E+01 0.551E+01 -.223E+01   -.805E+00 0.856E+00 -.596E+00   0.110E-02 -.695E-03 -.507E-03
   -.544E-01 -.437E+01 -.168E+01   -.169E+00 0.396E+01 0.115E+01   0.344E+00 0.741E+00 0.326E+00   0.697E-03 -.137E-03 -.365E-03
   0.292E+01 -.173E+01 0.586E+00   -.273E+01 0.157E+01 -.402E+00   -.636E+00 0.147E+00 -.332E+00   0.201E-03 0.197E-03 0.260E-03
   0.633E+01 -.207E+01 0.197E+01   -.589E+01 0.231E+01 -.199E+01   -.105E+01 -.229E+00 -.279E+00   0.935E-03 -.170E-02 -.144E-03
   -.253E+01 -.430E+01 -.158E+01   0.240E+01 0.412E+01 0.113E+01   0.700E+00 0.585E+00 0.550E+00   0.115E-03 -.228E-03 0.720E-03
   0.194E+01 -.524E+01 0.736E+00   -.125E+01 0.503E+01 -.448E+00   -.115E+01 0.528E+00 -.160E+00   -.102E-02 -.126E-02 -.874E-03
   0.284E+01 0.981E+00 -.267E+01   -.258E+01 -.777E+00 0.225E+01   -.472E+00 -.346E+00 0.381E+00   0.105E-02 -.289E-03 -.382E-03
   0.440E+00 -.116E+01 -.276E+00   -.502E+00 0.136E+01 0.372E+00   0.806E-01 0.205E+00 -.813E-01   0.980E-03 -.369E-03 0.186E-03
   0.864E-01 0.104E+01 0.239E+00   -.332E+00 -.637E+00 0.311E-01   0.327E-02 -.475E+00 -.190E+00   -.668E-03 -.338E-03 0.187E-04
   0.407E+01 -.253E+00 -.290E+00   -.382E+01 0.728E+00 0.836E-01   -.384E+00 -.674E+00 0.345E-01   -.108E-03 -.117E-02 0.406E-03
   0.517E+01 -.174E+01 -.716E+00   -.481E+01 0.193E+01 0.662E+00   -.826E+00 -.141E+00 0.746E-01   -.940E-03 -.175E-02 -.157E-03
   0.362E+01 -.258E+01 0.236E+01   -.370E+01 0.249E+01 -.192E+01   0.340E-01 -.148E+00 -.741E+00   -.382E-03 -.807E-03 -.783E-03
   -.964E+00 0.225E+00 -.178E+01   0.104E+01 -.171E+00 0.138E+01   -.438E-01 -.247E+00 0.316E+00   -.622E-03 -.315E-04 0.341E-03
   -.222E+01 -.350E+01 0.204E+01   0.189E+01 0.334E+01 -.183E+01   0.588E+00 0.435E+00 -.393E+00   -.119E-02 0.361E-03 -.172E-03
   0.814E-01 -.320E+01 -.215E+01   -.630E+00 0.277E+01 0.189E+01   0.589E+00 0.917E+00 0.527E+00   0.740E-03 -.195E-03 0.274E-03
   0.177E+01 -.316E+01 -.439E+01   -.150E+01 0.251E+01 0.416E+01   -.170E+00 0.806E+00 0.511E+00   -.109E-02 0.861E-03 0.179E-03
   0.183E+01 -.226E+01 0.104E+01   -.187E+01 0.141E+01 -.886E+00   -.311E+00 0.121E+01 -.155E+00   0.591E-03 0.161E-02 0.328E-03
   0.291E+01 0.175E+01 -.103E+01   -.277E+01 -.179E+01 0.101E+01   -.699E+00 -.554E-02 0.230E+00   -.106E-02 0.102E-02 0.105E-02
   -.188E+01 0.810E+01 0.225E+00   0.194E+01 -.769E+01 -.309E+00   0.112E+00 -.111E+01 -.427E+00   -.928E-03 -.236E-03 -.310E-03
   0.667E+01 0.558E+01 -.292E+01   -.607E+01 -.514E+01 0.252E+01   -.132E+01 -.721E+00 0.391E+00   -.122E-02 0.643E-03 0.143E-02
   -.205E+00 0.357E+00 0.331E+01   0.182E+00 -.103E-01 -.308E+01   0.626E+00 -.340E+00 -.943E+00   0.302E-03 0.212E-03 -.518E-03
   0.367E+01 0.278E+01 -.421E+01   -.337E+01 -.291E+01 0.402E+01   -.579E+00 0.249E+00 0.324E+00   -.100E-04 0.421E-03 0.168E-03
   -.209E+01 0.230E+01 -.304E+01   0.205E+01 -.230E+01 0.278E+01   -.836E-01 -.317E-01 0.101E+01   -.589E-04 0.975E-03 0.521E-03
   -.694E+01 0.947E+00 0.376E+01   0.640E+01 -.686E+00 -.344E+01   0.116E+01 0.196E+00 -.420E+00   0.116E-03 0.952E-03 -.455E-03
   -.807E+00 0.462E+01 -.578E+00   0.786E+00 -.438E+01 0.806E+00   -.136E+00 -.420E+00 -.234E+00   0.131E-04 0.123E-02 -.155E-03
   -.296E+01 0.366E+01 0.691E+01   0.265E+01 -.357E+01 -.633E+01   0.708E+00 -.196E+00 -.133E+01   -.498E-03 -.347E-03 -.158E-05
   -.309E+01 0.223E+01 -.443E+00   0.322E+01 -.231E+01 0.320E+00   0.137E+00 0.114E-01 0.656E-01   -.878E-03 -.129E-04 0.262E-03
   -.569E+01 0.527E+01 0.412E+01   0.535E+01 -.511E+01 -.381E+01   0.533E+00 -.874E+00 -.477E+00   -.160E-02 0.402E-03 -.884E-03
   -.215E+01 0.276E+00 0.177E+00   0.183E+01 -.312E+00 -.167E+00   0.602E+00 -.470E+00 -.282E+00   0.605E-03 -.249E-03 0.178E-04
   -.584E+00 0.326E+01 0.566E+01   0.338E+00 -.342E+01 -.521E+01   0.760E+00 0.273E+00 -.105E+01   0.104E-02 0.200E-02 -.606E-03
   -.248E+01 -.446E+00 -.217E+01   0.221E+01 0.421E+00 0.198E+01   0.302E+00 0.451E+00 0.684E+00   -.408E-03 0.447E-03 0.377E-03
   -.383E+01 0.692E+00 0.126E+01   0.366E+01 -.544E+00 -.132E+01   0.735E+00 -.453E+00 0.443E-01   -.913E-04 -.115E-02 0.129E-02
   -.396E+01 -.313E+01 0.197E+01   0.365E+01 0.273E+01 -.181E+01   0.384E+00 -.884E-01 -.393E-01   -.762E-03 -.464E-03 0.109E-03
   -.130E+01 -.517E+01 -.735E+00   0.134E+01 0.484E+01 0.549E+00   -.966E-01 0.643E+00 0.354E+00   -.369E-03 0.397E-03 0.531E-03
   -.222E+01 -.761E+01 0.187E+01   0.238E+01 0.730E+01 -.194E+01   -.412E+00 0.113E+01 -.419E-01   -.880E-04 0.930E-03 0.733E-04
   -.293E+01 -.211E+01 0.544E+01   0.293E+01 0.243E+01 -.505E+01   0.232E-01 -.102E+00 -.648E+00   0.146E-03 -.102E-02 0.116E-03
   -.245E+00 0.615E+01 -.101E+01   0.448E+00 -.526E+01 0.644E+00   -.349E+00 -.129E+01 0.368E+00   0.616E-03 -.131E-02 0.736E-03
   -.981E+00 -.343E+01 -.238E+01   0.102E+01 0.343E+01 0.240E+01   0.218E+00 0.866E-03 0.122E-01   -.968E-03 -.425E-03 0.329E-03
   0.267E+00 -.575E+01 0.100E+01   0.836E-01 0.529E+01 -.899E+00   -.560E+00 0.471E+00 -.129E+00   -.654E-03 -.224E-03 -.230E-03
   -.437E+01 0.821E+00 -.198E+01   0.420E+01 -.424E+00 0.182E+01   0.817E+00 -.692E+00 0.595E-01   -.209E-05 -.149E-02 -.759E-03
   -.188E+01 -.334E+01 -.200E+01   0.191E+01 0.358E+01 0.202E+01   0.471E+00 -.348E-01 0.269E+00   0.875E-03 -.249E-03 -.709E-03
   0.192E+01 -.333E+01 0.348E-01   -.140E+01 0.321E+01 0.547E-01   -.955E+00 0.255E+00 -.440E-01   0.938E-04 0.406E-03 -.258E-03
   -.176E+01 0.155E+01 0.183E+01   0.195E+01 -.102E+01 -.138E+01   -.152E+00 -.139E+01 -.797E+00   -.127E-02 -.119E-02 -.397E-03
   -.238E+01 -.479E+01 -.518E+01   0.243E+01 0.462E+01 0.451E+01   -.228E+00 0.447E+00 0.992E+00   0.359E-03 -.636E-03 0.859E-03
   0.239E+01 -.346E+01 -.301E+01   -.227E+01 0.293E+01 0.273E+01   -.468E+00 0.863E+00 0.594E+00   0.276E-03 -.116E-02 -.600E-03
   -.931E+00 -.497E+01 -.848E+00   0.845E+00 0.478E+01 0.664E+00   0.327E+00 0.105E+01 0.263E+00   0.906E-03 -.243E-03 -.158E-02
   -.345E+01 0.117E+00 -.341E+01   0.303E+01 0.237E+00 0.292E+01   0.885E+00 0.115E+00 0.652E+00   0.390E-03 0.600E-05 0.522E-03
 -----------------------------------------------------------------------------------------------
   -.985E-01 -.364E-01 0.142E-01   -.693E-13 -.551E-13 -.693E-13   0.105E+00 0.416E-01 -.283E-01   0.151E-02 0.103E-02 0.299E-03
 
 
 POSITION                                       TOTAL-FORCE (eV/Angst)
 -----------------------------------------------------------------------------------
     10.85512      0.06476      0.00520         0.959034     -0.354667     -0.065170
      2.83245      2.77662      0.02293        -0.388802     -0.370879      0.013258
      2.72364      0.05087      2.77872         0.193812     -0.002848     -0.316629
      0.04445      2.79051      2.73716         0.166720     -0.691578     -0.420326
      1.41958      1.40072      1.35146        -0.328826      0.082178     -0.098069
      4.11518      4.11630      1.41953         0.503411      0.034451     -0.169798
      3.99259      1.45063      4.17632         0.461438     -0.044003      0.046452
      1.47614      4.05539      4.00143        -0.513220      0.464263      1.153254
      0.08224      0.06960      5.49257        -0.119193     -0.114169      0.535966
      2.69647      2.84584      5.58255         0.171036     -0.373246     -0.395748
      2.73748      0.08883      8.13758        -0.328304     -0.451424      0.542347
     10.82836      2.77057      8.32160        -0.147035     -0.049547     -0.134518
      1.34348      1.49436      6.92920        -0.372670     -0.285431     -0.364221
      4.13635      4.19476      6.83122        -0.431594      0.080382      0.142080
      4.09490      1.46887      9.43177         0.194621     -0.544087      0.919870
      1.42120      4.10491      9.58460        -0.301346      0.231746      0.084329
      0.04423      5.41864      0.09733         0.075990      0.091199      0.211969
      2.74199      8.11752      0.07908        -0.335064      0.568430     -0.267378
      2.82289      5.45297      2.79228         0.120632      0.329666     -0.207198
      0.13374      8.19745      2.83539        -0.445259     -0.010020     -0.147189
      1.44785      6.78550      1.47971        -0.610118      0.001994     -0.290031
      4.05197      9.49834      1.42447         0.564626      0.401140      0.102954
      4.22105      6.81809      4.08292        -0.462169      0.322421      0.126879
      1.46421      9.58257      4.19167        -0.209721     -0.142240     -0.036347
      0.09899      5.41432      5.42183         0.019901      0.408955      0.015291
      2.86572      8.18910      5.46034        -0.242824     -0.069693      0.080314
      2.73967      5.50600      8.20706        -0.135203     -0.199857     -0.171226
      0.05612      8.14527      8.17463        -0.470110      0.045002      0.020883
      1.43305      6.85227      6.79512        -0.044175     -0.244129     -0.295509
      4.11094      9.61077      6.84357         0.028816     -0.192346     -0.075579
      4.06751      6.83147      9.57248         0.253082      0.273465     -0.185329
      1.38257      9.51816      9.53508         0.040935      0.479821      0.263743
      5.39803      0.07216      0.05159         0.096554      0.158232      0.287326
      8.15304      2.75302      0.09312        -0.358907      0.364995     -0.004201
      8.31061      0.06874      2.73601        -0.560654     -0.041639      0.210838
      5.43182      2.82973      2.87613         0.167199     -0.703345     -0.510771
      6.83423      1.43184      1.47770        -0.717941     -0.278434     -0.009650
      9.48447      4.10521      1.47026         0.602824      0.006762     -0.709495
      9.63991      1.41776      4.12324        -0.285792      0.113710      0.139487
      6.87022      4.17964      4.09574        -0.130434     -0.029055      0.748788
      5.41794      0.03745      5.43171         0.619266      0.457341     -0.098079
      8.26007      2.82045      5.46506        -0.156639     -0.184641     -0.006458
      8.06010      0.03382      8.23848         0.400394     -0.102379     -0.749304
      5.44991      2.80407      8.12986         0.262121     -0.067386     -0.056572
      6.80363      1.48100      6.78077         0.194833     -0.711957     -0.173032
      9.57974      4.18380      6.87305         0.278873     -0.506007     -0.271385
      9.39211      1.37341      9.63278         0.515525      0.118888     -0.590789
      6.81078      4.07891      9.51202         0.032404      0.426290      0.487134
      5.43550      5.46932      0.00877         0.567203     -0.306367     -0.015510
      8.24749      8.24813      0.01626         0.071788     -0.480079      0.124180
      8.20081      5.50991      2.74284        -0.057567      0.310661      0.167655
      5.56318      8.12364      2.70460        -0.246259      0.827783     -0.105870
      6.88338      6.80114      1.31942         0.018846      0.212905     -0.248945
      9.64797      9.56085      1.42626        -0.145376     -0.395526      0.005198
      9.55356      6.83853      4.13520         0.254865     -0.001802      0.030085
      6.85745      9.59496      4.06052        -0.210018      0.012793     -0.022332
      5.47936      5.52338      5.49823         0.646792     -0.296184     -0.097330
      8.12956      8.19557      5.44336         0.494917      0.206426      0.284373
      8.19139      5.47626      8.19538        -0.434432      0.132859      0.045449
      5.41451      8.27554      8.25158         0.034650     -0.856054     -0.354613
      6.81428      6.87178      6.86557        -0.180012      0.277162      0.326149
      9.54582      9.53772      6.82388        -0.349171      0.333622      0.312541
      9.55912      6.74945      9.57307         0.241296      0.855797      0.077885
      6.73148      9.54973      9.62687         0.464432      0.469682      0.157929
 -----------------------------------------------------------------------------------
    total drift:                                0.007630      0.006207     -0.013837


--------------------------------------------------------------------------------------------------------



  FREE ENERGIE OF THE ION-ELECTRON SYSTEM (eV)
  ---------------------------------------------------
  free  energy   TOTEN  =      -345.26058846 eV

  energy  without entropy=     -345.26058846  energy(sigma->0) =     -345.26058846
 


--------------------------------------------------------------------------------------------------------


    POTLOK:  cpu time      0.5003: real time      0.5016


--------------------------------------------------------------------------------------------------------


 writing wavefunctions
     LOOP+:  cpu time    233.0000: real time    238.3668
    4ORBIT:  cpu time      0.0000: real time      0.0000

 total amount of memory used by VASP MPI-rank0    37858. kBytes
=======================================================================

   base      :      30000. kBytes
   nonlr-proj:       1198. kBytes
   fftplans  :        841. kBytes
   grid      :       1174. kBytes
   one-center:          9. kBytes
   wavefun   :       4636. kBytes
 
  
  
 General timing and accounting informations for this job:
 ========================================================
  
                  Total CPU time used (sec):      276.310
                            User time (sec):      276.119
                          System time (sec):        0.191
                         Elapsed time (sec):      284.380
  
                   Maximum memory used (kb):      214268.
                   Average memory used (kb):          N/A
  
                          Minor page faults:        19327
                          Major page faults:         7584
                 Voluntary context switches:         4478
