 vasp.6.4.2 20Jul23 (build Jun 27 2024 19:57:08) complex                        
  
 executed on                 T2A5 date 2026.01.14  02:28:08
 running   28 mpi-ranks, with    1 threads/rank, on    1 nodes
 distrk:  each k-point on   28 cores,    1 groups
 distr:  one band on NCORE=  28 cores,    1 groups


--------------------------------------------------------------------------------------------------------


 INCAR:
   ISTART = 1
   ICHARG = 1
   LWAVE = .T.
   LCHARG = .T.
   ENCUT = 250
   PREC = Normal
   ADDGRID = .F.
   EDIFF = 1E-4
   LREAL = Auto
   ALGO = Fast
   NSW = 0
   IBRION = -1
   ISMEAR = 0
   SIGMA = 0.1
   NPAR = 1
   KPAR = 1
   SYMPREC = 1E-4

 POTCAR:    PAW_PBE Si 05Jan2001                  
 POTCAR:    PAW_PBE Si 05Jan2001                  
   SHA256 =  79d9987ad8750f624c4d6acb2a16d13abf6a777132adc04dc6c8399be72b42bb Si/POTCAR             
   COPYR  = (c) Copyright 05Jan2001 Georg Kresse                                                    
   COPYR  = This file is part of the software VASP. Any use, copying, and all other rights are regul
   COPYR  = If you do not have a valid VASP license, you may not use, copy or distribute this file. 
   VRHFIN =Si: s2p2                                                                                 
   LEXCH  = PE                                                                                      
   EATOM  =   103.0669 eV,    7.5752 Ry                                                             
                                                                                                    
   TITEL  = PAW_PBE Si 05Jan2001                                                                    
   LULTRA =        F    use ultrasoft PP ?                                                          
   IUNSCR =        1    unscreen: 0-lin 1-nonlin 2-no                                               
   RPACOR =    1.500    partial core radius                                                         
   POMASS =   28.085; ZVAL   =    4.000    mass and valenz                                          
   RCORE  =    1.900    outmost cutoff radius                                                       
   RWIGS  =    2.480; RWIGS  =    1.312    wigner-seitz radius (au A)                               
   ENMAX  =  245.345; ENMIN  =  184.009 eV                                                          
   ICORE  =        2    local potential                                                             
   LCOR   =        T    correct aug charges                                                         
   LPAW   =        T    paw PP                                                                      
   EAUG   =  322.069                                                                                
   DEXC   =    0.000                                                                                
   RMAX   =    1.950    core radius for proj-oper                                                   
   RAUG   =    1.300    factor for augmentation sphere                                              
   RDEP   =    1.993    radius for radial grids                                                     
   RDEPT  =    1.837    core radius for aug-charge                                                  
                                                                                                    
   Atomic configuration                                                                             
    6 entries                                                                                       
     n  l   j            E        occ.                                                              
     1  0  0.50     -1785.8828   2.0000                                                             
     2  0  0.50      -139.4969   2.0000                                                             
     2  1  1.50       -95.5546   6.0000                                                             
     3  0  0.50       -10.8127   2.0000                                                             
     3  1  0.50        -4.0811   2.0000                                                             
     3  2  1.50        -4.0817   0.0000                                                             
   Description                                                                                      
     l       E           TYP  RCUT    TYP  RCUT                                                     
     0    -10.8127223     23  1.900                                                                 
     0     -7.6451159     23  1.900                                                                 
     1     -4.0811372     23  1.900                                                                 
     1      2.4879257     23  1.900                                                                 
     2     -4.0817478      7  1.900                                                                 
  local pseudopotential read in
  partial core-charges read in
  partial kinetic energy density read in
  atomic valenz-charges read in
  non local Contribution for L=           0  read in
    real space projection operators read in
  non local Contribution for L=           0  read in
    real space projection operators read in
  non local Contribution for L=           1  read in
    real space projection operators read in
  non local Contribution for L=           1  read in
    real space projection operators read in
    PAW grid and wavefunctions read in
 
   number of l-projection  operators is LMAX  =           4
   number of lm-projection operators is LMMAX =           8
 
 Optimization of the real space projectors (new method)

 maximal supplied QI-value         = 19.84
 optimisation between [QCUT,QGAM] = [  7.94, 16.07] = [ 17.64, 72.34] Ry 
 Optimized for a Real-space Cutoff    1.55 Angstroem

   l    n(q)    QCUT    max X(q) W(low)/X(q) W(high)/X(q)  e(spline) 
   0      7     7.937   159.560    0.97E-04    0.31E-03    0.13E-06
   0      7     7.937   115.863    0.95E-04    0.31E-03    0.13E-06
   1      7     7.937    88.339    0.40E-03    0.66E-03    0.12E-06
   1      7     7.937    48.592    0.39E-03    0.64E-03    0.12E-06
  PAW_PBE Si 05Jan2001                  :
 energy of atom  1       EATOM= -103.0669
 kinetic energy error for atom=    0.0052 (will be added to EATOM!!)
 
 
 POSCAR: Si
  positions in cartesian coordinates
  No initial velocities read in
 exchange correlation table for  LEXCH =        8
   RHO(1)=    0.500       N(1)  =     2000
   RHO(2)=  100.500       N(2)  =     4000
 


--------------------------------------------------------------------------------------------------------


 ion  position               nearest neighbor table
   1  0.998  0.999  0.008-  54 2.30  47 2.37  32 2.38   5 2.40
   2  0.246  0.247  0.001-  15 2.36   5 2.36  16 2.40   6 2.42
   3  0.253  0.995  0.253-  24 2.33  22 2.35   7 2.37   5 2.41
   4  0.996  0.251  0.252-  39 2.32   5 2.35  38 2.38   8 2.40
   5  0.125  0.128  0.133-   4 2.35   2 2.36   1 2.40   3 2.41
   6  0.371  0.382  0.123-  49 2.35  19 2.40   2 2.42  36 2.43
   7  0.386  0.121  0.370-  10 2.34   3 2.37  36 2.39  41 2.42
   8  0.119  0.377  0.382-  10 2.36  25 2.39   4 2.40  19 2.44
   9  0.996  0.007  0.499-  39 2.34  13 2.36  62 2.39  24 2.45
  10  0.253  0.242  0.486-   7 2.34   8 2.36  13 2.41  14 2.42
  11  0.265  0.001  0.754-  30 2.27  13 2.32  15 2.33  32 2.41
  12  0.014  0.251  0.738-  47 2.36  46 2.37  16 2.42  13 2.44
  13  0.141  0.110  0.621-  11 2.32   9 2.36  10 2.41  12 2.44
  14  0.371  0.365  0.627-  27 2.37  57 2.40  10 2.42  44 2.44
  15  0.380  0.124  0.885-  11 2.33   2 2.36  44 2.37  33 2.38
  16  0.126  0.382  0.876-  27 2.30  17 2.37   2 2.40  12 2.42
  17  0.002  0.508  0.001-  21 2.36  38 2.36  16 2.37  63 2.42
  18  0.253  0.755  0.998-  31 2.30  22 2.35  32 2.37  21 2.38
  19  0.247  0.507  0.254-  23 2.31   6 2.40  21 2.42   8 2.44
  20  0.985  0.761  0.244-  54 2.28  24 2.32  21 2.41  55 2.42
  21  0.122  0.637  0.125-  17 2.36  18 2.38  20 2.41  19 2.42
  22  0.377  0.876  0.124-  52 2.34  18 2.35   3 2.35  33 2.48
  23  0.366  0.628  0.379-  19 2.31  26 2.38  52 2.38  57 2.39
  24  0.118  0.874  0.365-  20 2.32   3 2.33  26 2.39   9 2.45
  25  0.994  0.506  0.506-  29 2.39   8 2.39  46 2.40  55 2.40
  26  0.243  0.759  0.501-  30 2.34  23 2.38  24 2.39  29 2.39
  27  0.256  0.496  0.756-  16 2.30  14 2.37  31 2.38  29 2.46
  28  0.998  0.759  0.752-  63 2.24  62 2.33  32 2.38  29 2.40
  29  0.125  0.628  0.630-  25 2.39  26 2.39  28 2.40  27 2.46
  30  0.370  0.872  0.630-  11 2.27  26 2.34  60 2.36  41 2.42
  31  0.375  0.633  0.877-  18 2.30  60 2.37  27 2.38  49 2.45
  32  0.126  0.882  0.877-  18 2.37  28 2.38   1 2.38  11 2.41
  33  0.518  0.997  0.995-  64 2.33  15 2.38  37 2.40  22 2.48
  34  0.762  0.250  0.994-  47 2.34  38 2.36  37 2.37  48 2.43
  35  0.744  0.001  0.255-  37 2.30  39 2.32  54 2.38  56 2.42
  36  0.504  0.249  0.239-  37 2.36   7 2.39   6 2.43  40 2.45
  37  0.639  0.127  0.123-  35 2.30  36 2.36  34 2.37  33 2.40
  38  0.878  0.379  0.122-  34 2.36  17 2.36   4 2.38  51 2.39
  39  0.873  0.124  0.369-  35 2.32   4 2.32   9 2.34  42 2.40
  40  0.620  0.376  0.382-  57 2.32  42 2.37  51 2.38  36 2.45
  41  0.506  1.000  0.511-  45 2.35  56 2.41  30 2.42   7 2.42
  42  0.745  0.245  0.501-  46 2.36  40 2.37  45 2.37  39 2.40
  43  0.764  0.003  0.763-  64 2.24  47 2.33  45 2.42  62 2.43
  44  0.506  0.245  0.758-  45 2.30  48 2.37  15 2.37  14 2.44
  45  0.628  0.124  0.637-  44 2.30  41 2.35  42 2.37  43 2.42
  46  0.872  0.368  0.624-  59 2.33  42 2.36  12 2.37  25 2.40
  47  0.894  0.132  0.872-  43 2.33  34 2.34  12 2.36   1 2.37
  48  0.628  0.380  0.876-  59 2.35  44 2.37  49 2.39  34 2.43
  49  0.504  0.505  0.006-  53 2.34   6 2.35  48 2.39  31 2.45
  50  0.741  0.754  0.002-  64 2.29  54 2.35  53 2.40  63 2.51
  51  0.750  0.496  0.256-  55 2.36  40 2.38  53 2.38  38 2.39
  52  0.493  0.756  0.257-  56 2.30  22 2.34  23 2.38  53 2.41
  53  0.623  0.626  0.136-  49 2.34  51 2.38  50 2.40  52 2.41
  54  0.867  0.880  0.122-  20 2.28   1 2.30  50 2.35  35 2.38
  55  0.866  0.630  0.377-  58 2.29  51 2.36  25 2.40  20 2.42
  56  0.623  0.866  0.381-  52 2.30  58 2.33  41 2.41  35 2.42
  57  0.492  0.497  0.501-  40 2.32  23 2.39  14 2.40  61 2.47
  58  0.752  0.749  0.504-  55 2.29  62 2.30  56 2.33  61 2.39
  59  0.758  0.496  0.751-  61 2.32  46 2.33  48 2.35  63 2.38
  60  0.504  0.752  0.749-  30 2.36  31 2.37  64 2.40  61 2.41
  61  0.632  0.617  0.631-  59 2.32  58 2.39  60 2.41  57 2.47
  62  0.875  0.873  0.621-  58 2.30  28 2.33   9 2.39  43 2.43
  63  0.881  0.635  0.866-  28 2.24  59 2.38  17 2.42  50 2.51
  64  0.640  0.877  0.866-  43 2.24  50 2.29  33 2.33  60 2.40
 
  LATTYP: Found a simple monoclinic cell.
 ALAT       =    15.4812451490
 B/A-ratio  =     0.7068380098
 C/A-ratio  =     1.5810467823
 COS(beta)  =    -0.9487453637
  
  Lattice vectors:
  
 A1 = (  -0.0008988600,  10.9505551400,  10.9432304500)
 A2 = ( -10.9427325100,   0.0000000000,   0.0000000000)
 A3 = (  -0.0019135900, -21.8940247800, -10.9432304500)


Analysis of symmetry for initial positions (statically):
=====================================================================
 Subroutine PRICEL returns:
 Original cell was already a primitive cell.
 

 Routine SETGRP: Setting up the symmetry group for a 
 simple monoclinic supercell.


 Subroutine GETGRP returns: Found  1 space group operations
 (whereof  1 operations were pure point group operations)
 out of a pool of  4 trial point group operations.


The static configuration has the point symmetry C_1 .


Analysis of symmetry for dynamics (positions and initial velocities):
=====================================================================
 Subroutine PRICEL returns:
 Original cell was already a primitive cell.
 

 Routine SETGRP: Setting up the symmetry group for a 
 simple monoclinic supercell.


 Subroutine GETGRP returns: Found  1 space group operations
 (whereof  1 operations were pure point group operations)
 out of a pool of  4 trial point group operations.


The dynamic configuration has the point symmetry C_1 .


 Subroutine INISYM returns: Found  1 space group operations
 (whereof  1 operations are pure point group operations),
 and found     1 'primitive' translations


----------------------------------------------------------------------------------------

                                     Primitive cell                                     

  volume of cell :    1310.4678

  direct lattice vectors                    reciprocal lattice vectors
    10.942732510  0.000000000  0.000000000     0.091384853 -0.000023486  0.000031008
     0.002812450 10.943469640  0.000000000     0.000000000  0.091378697 -0.000059166
    -0.003711310  0.007085500 10.943230450     0.000000000  0.000000000  0.091380695

  length of vectors
    10.942732510 10.943470001 10.943233373     0.091384861  0.091378716  0.091380695

  position of ions in fractional coordinates (direct lattice)
     0.997608472  0.999446928  0.008189504
     0.246269550  0.247281021  0.000542874
     0.252944940  0.995328476  0.253446959
     0.995754958  0.250986945  0.251706149
     0.124965832  0.127611612  0.132707394
     0.371005489  0.382422228  0.122526744
     0.386058351  0.120793318  0.370102989
     0.118948673  0.376668504  0.382406991
     0.996432779  0.006599947  0.498698816
     0.252903182  0.242187763  0.485596791
     0.265228914  0.000569045  0.754267441
     0.013929850  0.251316283  0.737874669
     0.140855241  0.109875976  0.621019187
     0.370614888  0.365249095  0.627280827
     0.379828066  0.123627536  0.885178141
     0.125523929  0.382369422  0.876303185
     0.001600982  0.508278973  0.000812235
     0.253367620  0.755354557  0.997544521
     0.246608767  0.506761053  0.253567739
     0.985264605  0.760816422  0.244350571
     0.122307244  0.637002567  0.125047191
     0.376681213  0.876233798  0.124376318
     0.366398250  0.627732814  0.379073189
     0.117593338  0.874196340  0.364896435
     0.993961272  0.506370479  0.505689106
     0.243400965  0.758645246  0.500824441
     0.255768890  0.496054929  0.756455927
     0.997656396  0.758939283  0.751707396
     0.125107179  0.628116788  0.630356460
     0.370136679  0.872000401  0.629746720
     0.374604259  0.632918523  0.876593231
     0.125652496  0.882390338  0.876922024
     0.518341357  0.996715670  0.994641949
     0.762462290  0.249501883  0.994408415
     0.744368208  0.000735353  0.254655352
     0.504169281  0.248797097  0.239056439
     0.639023830  0.127030293  0.123303456
     0.877679086  0.379457713  0.121835364
     0.872698364  0.123917107  0.369386457
     0.619942540  0.375796248  0.382353163
     0.506227792  0.999881529  0.511464985
     0.745022677  0.245022473  0.500672404
     0.764155368  0.003400187  0.762829891
     0.505777377  0.245238245  0.757935067
     0.628036077  0.123730128  0.637255865
     0.871601092  0.368164021  0.624346537
     0.893593019  0.132409945  0.872231219
     0.627583008  0.379631239  0.875828980
     0.504498001  0.504507005  0.006300843
     0.740868921  0.753787295  0.002373912
     0.749588795  0.495663384  0.255663244
     0.492911266  0.756463874  0.257484426
     0.623107228  0.626443013  0.136026752
     0.867074542  0.880030781  0.121516736
     0.866440529  0.629966291  0.376599802
     0.623093322  0.865965146  0.381287253
     0.492021879  0.497286087  0.500520041
     0.751712250  0.749237916  0.504206408
     0.757749841  0.496116561  0.751056122
     0.503506812  0.751897401  0.748954734
     0.631887008  0.617442625  0.631348544
     0.874630723  0.873083802  0.621069984
     0.881015285  0.634618665  0.865500149
     0.639878754  0.877349350  0.866257338

  ion indices of the primitive-cell ions
   primitive index   ion index
                 1           1
                 2           2
                 3           3
                 4           4
                 5           5
                 6           6
                 7           7
                 8           8
                 9           9
                10          10
                11          11
                12          12
                13          13
                14          14
                15          15
                16          16
                17          17
                18          18
                19          19
                20          20
                21          21
                22          22
                23          23
                24          24
                25          25
                26          26
                27          27
                28          28
                29          29
                30          30
                31          31
                32          32
                33          33
                34          34
                35          35
                36          36
                37          37
                38          38
                39          39
                40          40
                41          41
                42          42
                43          43
                44          44
                45          45
                46          46
                47          47
                48          48
                49          49
                50          50
                51          51
                52          52
                53          53
                54          54
                55          55
                56          56
                57          57
                58          58
                59          59
                60          60
                61          61
                62          62
                63          63
                64          64

----------------------------------------------------------------------------------------

 
 
 KPOINTS: K-Points                                

Automatic generation of k-mesh.
 Grid dimensions read from file:
 generate k-points for:    2    2    2

 Generating k-lattice:

  Cartesian coordinates                     Fractional coordinates (reciprocal lattice)
     0.045692426 -0.000011743  0.000015504     0.500000000 -0.000000000  0.000000000
     0.000000000  0.045689349 -0.000029583     0.000000000  0.500000000  0.000000000
     0.000000000  0.000000000  0.045690347     0.000000000  0.000000000  0.500000000

  Length of vectors
     0.045692431  0.045689358  0.045690347

  Shift w.r.t. Gamma in fractional coordinates (k-lattice)
     0.500000000  0.500000000  0.500000000

 
 Subroutine IBZKPT returns following result:
 ===========================================
 
 Found      4 irreducible k-points:
 
 Following reciprocal coordinates:
            Coordinates               Weight
  0.250000  0.250000  0.250000      2.000000
  0.250000 -0.250000 -0.250000      2.000000
  0.250000 -0.250000  0.250000      2.000000
  0.250000  0.250000 -0.250000      2.000000
 
 Following cartesian coordinates:
            Coordinates               Weight
  0.022846  0.022839  0.022838      2.000000
  0.022846 -0.022851 -0.022823      2.000000
  0.022846 -0.022851  0.022868      2.000000
  0.022846  0.022839 -0.022852      2.000000
 


--------------------------------------------------------------------------------------------------------




 Dimension of arrays:
   k-points           NKPTS =      4   k-points in BZ     NKDIM =      4   number of bands    NBANDS=    161
   number of dos      NEDOS =    301   number of ions     NIONS =     64
   non local maximal  LDIM  =      4   non local SUM 2l+1 LMDIM =      8
   total plane-waves  NPLWV =  74088
   max r-space proj   IRMAX =    934   max aug-charges    IRDMAX=   2090
   dimension x,y,z NGX =    42 NGY =   42 NGZ =   42
   dimension x,y,z NGXF=    84 NGYF=   84 NGZF=   84
   support grid    NGXF=    84 NGYF=   84 NGZF=   84
   ions per type =              64
   NGX,Y,Z   is equivalent  to a cutoff of   6.38,  6.38,  6.38 a.u.
   NGXF,Y,Z  is equivalent  to a cutoff of  12.76, 12.76, 12.76 a.u.

 SYSTEM =  unknown system                          
 POSCAR =  Si                                      

 Startparameter for this run:
   NWRITE =      2    write-flag & timer
   PREC   = normal    normal or accurate (medium, high low for compatibility)
   ISTART =      1    job   : 0-new  1-cont  2-samecut
   ICHARG =      1    charge: 1-file 2-atom 10-const
   ISPIN  =      1    spin polarized calculation?
   LNONCOLLINEAR =      F non collinear calculations
   LSORBIT =      F    spin-orbit coupling
   INIWAV =      1    electr: 0-lowe 1-rand  2-diag
   LASPH  =      F    aspherical Exc in radial PAW
 Electronic Relaxation 1
   ENCUT  =  250.0 eV  18.37 Ry    4.29 a.u.  14.11 14.11 14.11*2*pi/ulx,y,z
   ENINI  =  250.0     initial cutoff
   ENAUG  =  322.1 eV  augmentation charge cutoff
   NELM   =     60;   NELMIN=  2; NELMDL=  0     # of ELM steps 
   EDIFF  = 0.1E-03   stopping-criterion for ELM
   LREAL  =      T    real-space projection
   NLSPLINE    = F    spline interpolate recip. space projectors
   LCOMPAT=      F    compatible to vasp.4.4
   GGA_COMPAT  = T    GGA compatible to vasp.4.4-vasp.4.6
   LMAXPAW     = -100 max onsite density
   LMAXMIX     =    2 max onsite mixed and CHGCAR
   VOSKOWN=      0    Vosko Wilk Nusair interpolation
   ROPT   =   -0.00050
 Ionic relaxation
   EDIFFG = 0.1E-02   stopping-criterion for IOM
   NSW    =      0    number of steps for IOM
   NBLOCK =      1;   KBLOCK =      1    inner block; outer block 
   IBRION =     -1    ionic relax: 0-MD 1-quasi-New 2-CG
   NFREE  =      0    steps in history (QN), initial steepest desc. (CG)
   ISIF   =      2    stress and relaxation
   IWAVPR =     10    prediction:  0-non 1-charg 2-wave 3-comb
   ISYM   =      2    0-nonsym 1-usesym 2-fastsym
   LCORR  =      T    Harris-Foulkes like correction to forces

   POTIM  = 0.5000    time-step for ionic-motion
   TEIN   =    0.0    initial temperature
   TEBEG  =    0.0;   TEEND  =   0.0 temperature during run
   SMASS  =  -3.00    Nose mass-parameter (am)
   estimated Nose-frequenzy (Omega)   =  0.10E-29 period in steps = 0.13E+47 mass=  -0.274E-26a.u.
   SCALEE = 1.0000    scale energy and forces
   NPACO  =    256;   APACO  = 10.0  distance and # of slots for P.C.
   PSTRESS=    0.0 pullay stress

  Mass of Ions in am
   POMASS =  28.09
  Ionic Valenz
   ZVAL   =   4.00
  Atomic Wigner-Seitz radii
   RWIGS  =  -1.00
  virtual crystal weights 
   VCA    =   1.00
   NELECT =     256.0000    total number of electrons
   NUPDOWN=      -1.0000    fix difference up-down

 DOS related values:
   EMIN   =  10.00;   EMAX   =-10.00  energy-range for DOS
   EFERMI =   0.00;   METHOD = LEGACY      
   ISMEAR =     0;   SIGMA  =   0.10  broadening in eV -4-tet -1-fermi 0-gaus

 Electronic relaxation 2 (details)
   IALGO  =     68    algorithm
   LDIAG  =      T    sub-space diagonalisation (order eigenvalues)
   LSUBROT=      F    optimize rotation matrix (better conditioning)
   TURBO    =      0    0=normal 1=particle mesh
   IRESTART =      0    0=no restart 2=restart with 2 vectors
   NREBOOT  =      0    no. of reboots
   NMIN     =      0    reboot dimension
   EREF     =   0.00    reference energy to select bands
   IMIX   =      4    mixing-type and parameters
     AMIX     =   0.40;   BMIX     =  1.00
     AMIX_MAG =   1.60;   BMIX_MAG =  1.00
     AMIN     =   0.10
     WC   =   100.;   INIMIX=   1;  MIXPRE=   1;  MAXMIX= -45

 Intra band minimization:
   WEIMIN = 0.0000     energy-eigenvalue tresh-hold
   EBREAK =  0.16E-06  absolut break condition
   DEPER  =   0.30     relativ break condition  

   TIME   =   0.40     timestep for ELM

  volume/ion in A,a.u.               =      20.48       138.18
  Fermi-wavevector in a.u.,A,eV,Ry     =   0.949903  1.795057 12.276756  0.902316
  Thomas-Fermi vector in A             =   2.078230
 
 Write flags
   LWAVE        =      T    write WAVECAR
   LDOWNSAMPLE  =      F    k-point downsampling of WAVECAR
   LCHARG       =      T    write CHGCAR
   LVTOT        =      F    write LOCPOT, total local potential
   LVHAR        =      F    write LOCPOT, Hartree potential only
   LELF         =      F    write electronic localiz. function (ELF)
   LORBIT       =      0    0 simple, 1 ext, 2 COOP (PROOUT), +10 PAW based schemes


 Dipole corrections
   LMONO  =      F    monopole corrections only (constant potential shift)
   LDIPOL =      F    correct potential (dipole corrections)
   IDIPOL =      0    1-x, 2-y, 3-z, 4-all directions 
   EPSILON=  1.0000000 bulk dielectric constant

 Exchange correlation treatment:
   GGA     =    --    GGA type
   LEXCH   =     8    internal setting for exchange type
   LIBXC   =     F    Libxc                    
   VOSKOWN =     0    Vosko Wilk Nusair interpolation
   LHFCALC =     F    Hartree Fock is set to
   LHFONE  =     F    Hartree Fock one center treatment
   AEXX    =    0.0000 exact exchange contribution

 Linear response parameters
   LEPSILON=     F    determine dielectric tensor
   LRPA    =     F    only Hartree local field effects (RPA)
   LNABLA  =     F    use nabla operator in PAW spheres
   LVEL    =     F    velocity operator in full k-point grid
   CSHIFT  =0.1000    complex shift for real part using Kramers Kronig
   OMEGAMAX=  -1.0    maximum frequency
   DEG_THRESHOLD= 0.2000000E-02 threshold for treating states as degnerate
   RTIME   =   -0.100 relaxation time in fs
  (WPLASMAI=    0.000 imaginary part of plasma frequency in eV, 0.658/RTIME)
   DFIELD  = 0.0000000 0.0000000 0.0000000 field for delta impulse in time
 
  Optional k-point grid parameters
   LKPOINTS_OPT  =     F    use optional k-point grid
   KPOINTS_OPT_MODE=     1    mode for optional k-point grid
 
 Orbital magnetization related:
   ORBITALMAG=     F  switch on orbital magnetization
   LCHIMAG   =     F  perturbation theory with respect to B field
   DQ        =  0.001000  dq finite difference perturbation B field
   LLRAUG    =     F  two centre corrections for induced B field
   LBONE     =     F  B-component reconstruction in AE one-centre
   LVGVCALC  =     T  calculate vGv susceptibility
   LVGVAPPL  =     F  apply vGv susceptibility instead of pGv for G=0

 Random number generation:
   RANDOM_GENERATOR = DEFAULT
   PCG_SEED         = not used


--------------------------------------------------------------------------------------------------------


 Static calculation
 charge density and potential will be updated during run
 non-spin polarized calculation
 RMM-DIIS sequential band-by-band and
  variant of blocked Davidson during initial phase
 perform sub-space diagonalisation
    before iterative eigenvector-optimisation
 modified Broyden-mixing scheme, WC =      100.0
 initial mixing is a Kerker type mixing with AMIX =  0.4000 and BMIX =      1.0000
 Hartree-type preconditioning will be used
 using additional bands           33
 real space projection scheme for non local part
 use partial core corrections
 calculate Harris-corrections to forces 
   (improved forces if not selfconsistent)
 use gradient corrections 
 use of overlap-Matrix (Vanderbilt PP)
 Gauss-broadening in eV      SIGMA  =   0.10


--------------------------------------------------------------------------------------------------------


  energy-cutoff  :      250.00
  volume of cell :     1310.47
      direct lattice vectors                 reciprocal lattice vectors
    10.942732510  0.000000000  0.000000000     0.091384853 -0.000023486  0.000031008
     0.002812450 10.943469640  0.000000000     0.000000000  0.091378697 -0.000059166
    -0.003711310  0.007085500 10.943230450     0.000000000  0.000000000  0.091380695

  length of vectors
    10.942732510 10.943470001 10.943233373     0.091384861  0.091378716  0.091380695


 
 old parameters found on file WAVECAR:
  energy-cutoff  :      250.00
  volume of cell :     1308.43
      direct lattice vectors                 reciprocal lattice vectors
    10.937050680  0.000000000  0.000000000     0.091432328 -0.000019584  0.000034947
     0.002342740 10.937866750  0.000000000     0.000000000  0.091425506 -0.000060856
    -0.004178910  0.007280360 10.937454640     0.000000000  0.000000000  0.091428951

  length of vectors

 
 k-points in units of 2pi/SCALE and weight: K-Points                                
   0.02284621  0.02283880  0.02283813       0.250
   0.02284621 -0.02285055 -0.02282263       0.250
   0.02284621 -0.02285055  0.02286772       0.250
   0.02284621  0.02283880 -0.02285221       0.250
 
 k-points in reciprocal lattice and weights: K-Points                                
   0.25000000  0.25000000  0.25000000       0.250
   0.25000000 -0.25000000 -0.25000000       0.250
   0.25000000 -0.25000000  0.25000000       0.250
   0.25000000  0.25000000 -0.25000000       0.250
 
 position of ions in fractional coordinates (direct lattice) 
   0.99760847  0.99944693  0.00818950
   0.24626955  0.24728102  0.00054287
   0.25294494  0.99532848  0.25344696
   0.99575496  0.25098695  0.25170615
   0.12496583  0.12761161  0.13270739
   0.37100549  0.38242223  0.12252674
   0.38605835  0.12079332  0.37010299
   0.11894867  0.37666850  0.38240699
   0.99643278  0.00659995  0.49869882
   0.25290318  0.24218776  0.48559679
   0.26522891  0.00056905  0.75426744
   0.01392985  0.25131628  0.73787467
   0.14085524  0.10987598  0.62101919
   0.37061489  0.36524909  0.62728083
   0.37982807  0.12362754  0.88517814
   0.12552393  0.38236942  0.87630319
   0.00160098  0.50827897  0.00081223
   0.25336762  0.75535456  0.99754452
   0.24660877  0.50676105  0.25356774
   0.98526460  0.76081642  0.24435057
   0.12230724  0.63700257  0.12504719
   0.37668121  0.87623380  0.12437632
   0.36639825  0.62773281  0.37907319
   0.11759334  0.87419634  0.36489644
   0.99396127  0.50637048  0.50568911
   0.24340097  0.75864525  0.50082444
   0.25576889  0.49605493  0.75645593
   0.99765640  0.75893928  0.75170740
   0.12510718  0.62811679  0.63035646
   0.37013668  0.87200040  0.62974672
   0.37460426  0.63291852  0.87659323
   0.12565250  0.88239034  0.87692202
   0.51834136  0.99671567  0.99464195
   0.76246229  0.24950188  0.99440842
   0.74436821  0.00073535  0.25465535
   0.50416928  0.24879710  0.23905644
   0.63902383  0.12703029  0.12330346
   0.87767909  0.37945771  0.12183536
   0.87269836  0.12391711  0.36938646
   0.61994254  0.37579625  0.38235316
   0.50622779  0.99988153  0.51146499
   0.74502268  0.24502247  0.50067240
   0.76415537  0.00340019  0.76282989
   0.50577738  0.24523825  0.75793507
   0.62803608  0.12373013  0.63725587
   0.87160109  0.36816402  0.62434654
   0.89359302  0.13240995  0.87223122
   0.62758301  0.37963124  0.87582898
   0.50449800  0.50450701  0.00630084
   0.74086892  0.75378730  0.00237391
   0.74958880  0.49566338  0.25566324
   0.49291127  0.75646387  0.25748443
   0.62310723  0.62644301  0.13602675
   0.86707454  0.88003078  0.12151674
   0.86644053  0.62996629  0.37659980
   0.62309332  0.86596515  0.38128725
   0.49202188  0.49728609  0.50052004
   0.75171225  0.74923792  0.50420641
   0.75774984  0.49611656  0.75105612
   0.50350681  0.75189740  0.74895473
   0.63188701  0.61744262  0.63134854
   0.87463072  0.87308380  0.62106998
   0.88101528  0.63461867  0.86550015
   0.63987875  0.87734935  0.86625734
 
 position of ions in cartesian coordinates  (Angst):
  10.91934316 10.93747514  0.08961963
   2.69555526  2.70611619  0.00594079
   2.76976751 10.89414276  2.77352848
  10.89605188  2.74845148  2.75447839
   1.36733406  1.39745410  1.45224759
   4.06043463  4.18589420  1.34083840
   4.22349943  1.32452037  4.05012230
   1.30126364  4.12476988  4.18476783
  10.90186510  0.07575985  5.45737607
   2.76633081  2.65381513  5.31399759
   2.89953134  0.01157169  8.25412243
   0.15039896  2.75550032  8.07473255
   1.53934545  1.20682464  6.79595608
   4.05423879  4.00153698  6.86447865
   4.15341945  1.35918612  9.68670839
   1.37139794  4.19065721  9.58958770
   0.01894561  5.56234127  0.00888847
   2.77095629  8.27326776 10.91635958
   2.69905794  5.54752085  2.77485020
  10.78271992  8.32770276  2.67398461
   1.33970290  6.97190427  1.36842023
   4.12392452  9.58991923  1.36107871
   4.00975665  6.87226091  4.14828526
   1.28789683  9.56932658  3.99314578
  10.87619970  5.54503302  5.53387242
   2.66374659  8.30575981  5.48063727
   2.79739823  5.43392192  8.27807153
  10.91643174  8.31075523  8.22610726
   1.36844149  6.87824339  6.89813601
   4.05042194  9.54717199  6.89146348
   4.09772095  6.93253574  9.59276174
   1.37420880  9.66262531  9.59635979
   5.67118261 10.91457521 10.88459606
   8.34043204  2.73746216 10.88204045
   8.14447915  0.00985167  2.78675220
   5.51680210  2.72439731  2.61604970
   6.99256649  1.39102582  1.34933813
   9.60482250  4.15344723  1.33327246
   9.54868236  1.35870039  4.04228112
   6.78350326  4.11522399  4.18417878
   5.54042923 10.94579714  5.59707920
   8.15141483  2.68494351  5.47897350
   8.35912625  0.04261487  8.34782329
   5.53246333  2.68912764  8.29425810
   6.87041373  1.35855218  6.97363779
   9.53641590  4.03341559  6.83236804
   9.77548466  1.45520441  9.54502723
   6.86529021  4.16068862  9.58439836
   5.52198219  5.52110174  0.06895158
   8.10924161  8.24906520  0.02597827
   8.20299486  5.42608870  2.79778180
   5.39496805  8.28016384  2.81771141
   6.81975272  6.85642391  1.48857209
   9.49018884  9.63145114  1.32978565
   9.48160101  6.89668538  4.12121842
   6.81936396  9.47936489  4.17251428
   5.38360482  5.44558163  5.47730615
   8.22602200  8.20283494  5.51764692
   8.29046172  5.43455813  8.21898022
   5.50907543  8.23367310  8.19598425
   6.91396390  6.76143804  6.90899261
   9.57100057  9.55896667  6.79651196
   9.63928729  6.95106260  9.47136759
   7.00127460  9.60738384  9.47965368
 


--------------------------------------------------------------------------------------------------------


 k-point   1 :   0.2500 0.2500 0.2500  plane waves:   11764
 k-point   2 :   0.2500-0.2500-0.2500  plane waves:   11764
 k-point   3 :   0.2500-0.2500 0.2500  plane waves:   11764
 k-point   4 :   0.2500 0.2500-0.2500  plane waves:   11764

 maximum and minimum number of plane-waves per node :       438      404

 maximum number of plane-waves:     11764
 maximum index in each direction: 
   IXMAX=   13   IYMAX=   14   IZMAX=   14
   IXMIN=  -14   IYMIN=  -14   IZMIN=  -14


 real space projection operators:
  total allocation   :       3434.25 KBytes
  max/ min on nodes  :        171.06         73.69


 parallel 3D FFT for wavefunctions:
    minimum data exchange during FFTs selected (reduces bandwidth)
 parallel 3D FFT for charge:
    minimum data exchange during FFTs selected (reduces bandwidth)


 total amount of memory used by VASP MPI-rank0    37803. kBytes
=======================================================================

   base      :      30000. kBytes
   nonlr-proj:       1184. kBytes
   fftplans  :        841. kBytes
   grid      :       1174. kBytes
   one-center:          9. kBytes
   wavefun   :       4595. kBytes
 
     INWAV:  cpu time     18.4286: real time     18.4711
 Broyden mixing: mesh for mixing (old mesh)
   NGX = 29   NGY = 29   NGZ = 29
  (NGX  = 84   NGY  = 84   NGZ  = 84)
  gives a total of  24389 points

 initial charge density was supplied:
 number of electron     255.9999983 magnetization 
 keeping initial charge density in first step


--------------------------------------------------------------------------------------------------------


 Maximum index for non-local projection operator          112
 Maximum index for augmentation-charges          183 (set IRDMAX)


--------------------------------------------------------------------------------------------------------


 First call to EWALD:  gamma=   0.162
 Maximum number of real-space cells 3x 3x 3
 Maximum number of reciprocal cells 3x 3x 3

    FEWALD:  cpu time      0.0818: real time      0.0820


--------------------------------------- Ionic step        1  -------------------------------------------




--------------------------------------- Iteration      1(   1)  ---------------------------------------


    POTLOK:  cpu time      0.1926: real time      0.3281
    SETDIJ:  cpu time      0.0718: real time      0.0720
     EDDAV:  cpu time     35.4639: real time     35.5452
       DOS:  cpu time      0.0132: real time      0.0132
    CHARGE:  cpu time      2.8203: real time      2.8266
    MIXING:  cpu time      0.1238: real time      0.1241
    --------------------------------------------
      LOOP:  cpu time     38.6856: real time     38.9092

 eigenvalue-minimisations  :  1440
 total energy-change (2. order) :-0.3444365E+03  (-0.1222673E+00)
 number of electron     255.9999977 magnetization 
 augmentation part      -14.6453030 magnetization 

 Broyden mixing:
  rms(total) = 0.55509E-01    rms(broyden)= 0.55505E-01
  rms(prec ) = 0.58913E-01
  weight for this iteration     100.00

 Free energy of the ion-electron system (eV)
  ---------------------------------------------------
  alpha Z        PSCENC =       105.21752624
  Ewald energy   TEWEN  =     -7255.74384264
  -Hartree energ DENC   =      -486.91419946
  -exchange      EXHF   =         0.00000000
  -V(xc)+E(xc)   XCENC  =      -578.23010115
  PAW double counting   =     30646.57397540   -29527.32925822
  entropy T*S    EENTRO =        -0.00000000
  eigenvalues    EBANDS =       156.03738948
  atomic energy  EATOM  =      6595.95197522
  Solvation  Ediel_sol  =         0.00000000
  ---------------------------------------------------
  free energy    TOTEN  =      -344.43653514 eV

  energy without entropy =     -344.43653514  energy(sigma->0) =     -344.43653514


--------------------------------------------------------------------------------------------------------




--------------------------------------- Iteration      1(   2)  ---------------------------------------


    POTLOK:  cpu time      0.0458: real time      0.0472
    SETDIJ:  cpu time      0.0019: real time      0.0019
    EDDIAG:  cpu time      5.4018: real time      5.4142
  RMM-DIIS:  cpu time     22.5401: real time     22.5903
    ORTHCH:  cpu time      0.1949: real time      0.1954
       DOS:  cpu time      0.1246: real time      0.1249
    CHARGE:  cpu time      2.3990: real time      2.4044
    MIXING:  cpu time      0.0004: real time      0.0004
    --------------------------------------------
      LOOP:  cpu time     30.7086: real time     30.7787

 eigenvalue-minimisations  :  1314
 total energy-change (2. order) :-0.5986846E-02  (-0.6666267E-02)
 number of electron     255.9999977 magnetization 
 augmentation part      -14.6473223 magnetization 

 Broyden mixing:
  rms(total) = 0.21952E-01    rms(broyden)= 0.21951E-01
  rms(prec ) = 0.26421E-01
  weight for this iteration     100.00

 eigenvalues of (default mixing * dielectric matrix)
  average eigenvalue GAMMA=   1.3364
  1.3364

 Free energy of the ion-electron system (eV)
  ---------------------------------------------------
  alpha Z        PSCENC =       105.21752624
  Ewald energy   TEWEN  =     -7255.74384264
  -Hartree energ DENC   =      -487.21391785
  -exchange      EXHF   =         0.00000000
  -V(xc)+E(xc)   XCENC  =      -578.22330257
  PAW double counting   =     30617.15942917   -29497.90038275
  entropy T*S    EENTRO =        -0.00000000
  eigenvalues    EBANDS =       156.30999320
  atomic energy  EATOM  =      6595.95197522
  Solvation  Ediel_sol  =         0.00000000
  ---------------------------------------------------
  free energy    TOTEN  =      -344.44252198 eV

  energy without entropy =     -344.44252198  energy(sigma->0) =     -344.44252198


--------------------------------------------------------------------------------------------------------




--------------------------------------- Iteration      1(   3)  ---------------------------------------


    POTLOK:  cpu time      0.2137: real time      0.2142
    SETDIJ:  cpu time      0.1106: real time      0.1109
    EDDIAG:  cpu time      5.4901: real time      5.5027
  RMM-DIIS:  cpu time     23.9152: real time     23.9693
    ORTHCH:  cpu time      0.1776: real time      0.1780
       DOS:  cpu time      0.0291: real time      0.0291
    CHARGE:  cpu time      2.0846: real time      2.0894
    MIXING:  cpu time      0.0003: real time      0.0003
    --------------------------------------------
      LOOP:  cpu time     32.0213: real time     32.0940

 eigenvalue-minimisations  :  1507
 total energy-change (2. order) :-0.6183282E-03  (-0.1185289E-02)
 number of electron     255.9999977 magnetization 
 augmentation part      -14.6462520 magnetization 

 Broyden mixing:
  rms(total) = 0.10430E-01    rms(broyden)= 0.10429E-01
  rms(prec ) = 0.12599E-01
  weight for this iteration     100.00

 eigenvalues of (default mixing * dielectric matrix)
  average eigenvalue GAMMA=   1.6716
  1.6716  1.6716

 Free energy of the ion-electron system (eV)
  ---------------------------------------------------
  alpha Z        PSCENC =       105.21752624
  Ewald energy   TEWEN  =     -7255.74384264
  -Hartree energ DENC   =      -487.51133561
  -exchange      EXHF   =         0.00000000
  -V(xc)+E(xc)   XCENC  =      -578.21479302
  PAW double counting   =     30588.99707148   -29469.72748437
  entropy T*S    EENTRO =        -0.00000000
  eigenvalues    EBANDS =       156.58774239
  atomic energy  EATOM  =      6595.95197522
  Solvation  Ediel_sol  =         0.00000000
  ---------------------------------------------------
  free energy    TOTEN  =      -344.44314031 eV

  energy without entropy =     -344.44314031  energy(sigma->0) =     -344.44314031


--------------------------------------------------------------------------------------------------------




--------------------------------------- Iteration      1(   4)  ---------------------------------------


    POTLOK:  cpu time      0.0451: real time      0.0462
    SETDIJ:  cpu time      0.0019: real time      0.0019
    EDDIAG:  cpu time      5.1448: real time      5.1565
  RMM-DIIS:  cpu time     25.8459: real time     25.9047
    ORTHCH:  cpu time      0.2024: real time      0.2029
       DOS:  cpu time      0.1107: real time      0.1109
    CHARGE:  cpu time      1.1273: real time      1.1300
    MIXING:  cpu time      0.0004: real time      0.0004
    --------------------------------------------
      LOOP:  cpu time     32.4785: real time     32.5536

 eigenvalue-minimisations  :  1566
 total energy-change (2. order) :-0.6813885E-04  (-0.2262247E-03)
 number of electron     255.9999977 magnetization 
 augmentation part      -14.6456760 magnetization 

 Broyden mixing:
  rms(total) = 0.45624E-02    rms(broyden)= 0.45621E-02
  rms(prec ) = 0.50895E-02
  weight for this iteration     100.00

 eigenvalues of (default mixing * dielectric matrix)
  average eigenvalue GAMMA=   1.7744
  1.0529  2.3503  1.9200

 Free energy of the ion-electron system (eV)
  ---------------------------------------------------
  alpha Z        PSCENC =       105.21752624
  Ewald energy   TEWEN  =     -7255.74384264
  -Hartree energ DENC   =      -487.66093501
  -exchange      EXHF   =         0.00000000
  -V(xc)+E(xc)   XCENC  =      -578.21459399
  PAW double counting   =     30577.13913930   -29457.85863987
  entropy T*S    EENTRO =        -0.00000000
  eigenvalues    EBANDS =       156.72616229
  atomic energy  EATOM  =      6595.95197522
  Solvation  Ediel_sol  =         0.00000000
  ---------------------------------------------------
  free energy    TOTEN  =      -344.44320845 eV

  energy without entropy =     -344.44320845  energy(sigma->0) =     -344.44320845


--------------------------------------------------------------------------------------------------------




--------------------------------------- Iteration      1(   5)  ---------------------------------------


    POTLOK:  cpu time      0.2171: real time      0.2176
    SETDIJ:  cpu time      0.0318: real time      0.0319
    EDDIAG:  cpu time      5.6513: real time      5.6641
  RMM-DIIS:  cpu time     23.4173: real time     23.4698
    ORTHCH:  cpu time      0.2444: real time      0.2450
       DOS:  cpu time      0.1557: real time      0.1562
    --------------------------------------------
      LOOP:  cpu time     29.7177: real time     29.7846

 eigenvalue-minimisations  :  1194
 total energy-change (2. order) :-0.2279880E-04  (-0.3999332E-04)
 number of electron     255.9999977 magnetization 
 augmentation part      -14.6456760 magnetization 

 Free energy of the ion-electron system (eV)
  ---------------------------------------------------
  alpha Z        PSCENC =       105.21752624
  Ewald energy   TEWEN  =     -7255.74384264
  -Hartree energ DENC   =      -487.71313709
  -exchange      EXHF   =         0.00000000
  -V(xc)+E(xc)   XCENC  =      -578.21574178
  PAW double counting   =     30579.78493636   -29460.49820561
  entropy T*S    EENTRO =        -0.00000000
  eigenvalues    EBANDS =       156.77325805
  atomic energy  EATOM  =      6595.95197522
  Solvation  Ediel_sol  =         0.00000000
  ---------------------------------------------------
  free energy    TOTEN  =      -344.44323125 eV

  energy without entropy =     -344.44323125  energy(sigma->0) =     -344.44323125


--------------------------------------------------------------------------------------------------------




 average (electrostatic) potential at core
  the test charge radii are     0.9892
  (the norm of the test charge is              1.0000)
       1 -83.5074       2 -83.5504       3 -83.4819       4 -83.4994       5 -83.4947
       6 -83.5192       7 -83.5066       8 -83.5235       9 -83.5390      10 -83.4937
      11 -83.5567      12 -83.5630      13 -83.5719      14 -83.4941      15 -83.5545
      16 -83.4858      17 -83.5057      18 -83.4819      19 -83.5281      20 -83.5264
      21 -83.4943      22 -83.5180      23 -83.4757      24 -83.5142      25 -83.5017
      26 -83.5434      27 -83.5046      28 -83.4745      29 -83.4752      30 -83.5273
      31 -83.4955      32 -83.5434      33 -83.5227      34 -83.5047      35 -83.5303
      36 -83.4862      37 -83.5076      38 -83.5322      39 -83.5511      40 -83.4823
      41 -83.5277      42 -83.5120      43 -83.5193      44 -83.4911      45 -83.5047
      46 -83.4973      47 -83.5150      48 -83.5310      49 -83.4783      50 -83.5408
      51 -83.5345      52 -83.5059      53 -83.5294      54 -83.4854      55 -83.5138
      56 -83.5774      57 -83.4888      58 -83.5031      59 -83.5029      60 -83.5678
      61 -83.5188      62 -83.5273      63 -83.5342      64 -83.4998
 
 
 
 E-fermi :   5.8910     XC(G=0):  -9.3280     alpha+bet :-11.7134

 Fermi energy:         5.8909992182

 k-point     1 :       0.2500    0.2500    0.2500
  band No.  band energies     occupation 
      1      -6.0328      2.00000
      2      -5.5247      2.00000
      3      -5.4929      2.00000
      4      -5.4818      2.00000
      5      -5.0062      2.00000
      6      -4.9841      2.00000
      7      -4.9677      2.00000
      8      -4.5526      2.00000
      9      -4.5019      2.00000
     10      -4.4727      2.00000
     11      -4.4483      2.00000
     12      -4.1077      2.00000
     13      -4.0922      2.00000
     14      -4.0715      2.00000
     15      -4.0396      2.00000
     16      -3.9995      2.00000
     17      -3.9889      2.00000
     18      -3.8701      2.00000
     19      -3.8005      2.00000
     20      -3.7544      2.00000
     21      -3.3828      2.00000
     22      -3.3379      2.00000
     23      -3.3227      2.00000
     24      -3.0369      2.00000
     25      -3.0166      2.00000
     26      -2.9424      2.00000
     27      -2.8551      2.00000
     28      -2.8299      2.00000
     29      -2.7974      2.00000
     30      -2.7644      2.00000
     31      -2.7363      2.00000
     32      -2.7198      2.00000
     33      -1.3614      2.00000
     34      -1.3363      2.00000
     35      -1.2907      2.00000
     36      -1.2779      2.00000
     37      -1.2583      2.00000
     38      -1.2334      2.00000
     39      -1.2000      2.00000
     40      -1.1754      2.00000
     41      -1.1344      2.00000
     42      -1.0835      2.00000
     43      -1.0524      2.00000
     44      -1.0210      2.00000
     45      -0.9850      2.00000
     46      -0.9256      2.00000
     47      -0.8892      2.00000
     48      -0.2759      2.00000
     49      -0.2262      2.00000
     50      -0.1970      2.00000
     51      -0.1807      2.00000
     52      -0.1591      2.00000
     53      -0.1372      2.00000
     54      -0.1057      2.00000
     55       0.6226      2.00000
     56       0.6750      2.00000
     57       0.7515      2.00000
     58       0.9939      2.00000
     59       1.0144      2.00000
     60       1.0457      2.00000
     61       1.5871      2.00000
     62       1.6021      2.00000
     63       1.6205      2.00000
     64       1.6379      2.00000
     65       1.6553      2.00000
     66       1.6674      2.00000
     67       1.7052      2.00000
     68       1.7209      2.00000
     69       1.7441      2.00000
     70       2.1880      2.00000
     71       2.2140      2.00000
     72       2.2312      2.00000
     73       2.2769      2.00000
     74       2.3003      2.00000
     75       2.3417      2.00000
     76       2.3469      2.00000
     77       2.3610      2.00000
     78       2.3730      2.00000
     79       2.4287      2.00000
     80       2.4441      2.00000
     81       2.4762      2.00000
     82       2.6866      2.00000
     83       2.7023      2.00000
     84       2.7099      2.00000
     85       2.7228      2.00000
     86       2.7392      2.00000
     87       2.7596      2.00000
     88       2.9501      2.00000
     89       2.9830      2.00000
     90       2.9892      2.00000
     91       3.0073      2.00000
     92       3.0235      2.00000
     93       3.0484      2.00000
     94       3.2480      2.00000
     95       3.2777      2.00000
     96       3.3311      2.00000
     97       3.3661      2.00000
     98       3.3699      2.00000
     99       3.3997      2.00000
    100       3.4516      2.00000
    101       3.4723      2.00000
    102       3.4801      2.00000
    103       3.6361      2.00000
    104       3.6795      2.00000
    105       3.7195      2.00000
    106       3.7567      2.00000
    107       3.7619      2.00000
    108       3.7793      2.00000
    109       3.8062      2.00000
    110       3.8185      2.00000
    111       3.8341      2.00000
    112       4.0186      2.00000
    113       4.0870      2.00000
    114       4.1280      2.00000
    115       4.1715      2.00000
    116       4.3123      2.00000
    117       4.3424      2.00000
    118       4.3581      2.00000
    119       4.3896      2.00000
    120       4.3943      2.00000
    121       4.4791      2.00000
    122       4.5484      2.00000
    123       4.5812      2.00000
    124       4.8798      2.00000
    125       4.9166      2.00000
    126       4.9377      2.00000
    127       5.3583      2.00000
    128       5.3986      2.00000
    129       6.4643      0.00000
    130       6.5388      0.00000
    131       6.5677      0.00000
    132       6.9243      0.00000
    133       6.9589      0.00000
    134       6.9923      0.00000
    135       7.1492      0.00000
    136       7.3980      0.00000
    137       7.4295      0.00000
    138       7.4482      0.00000
    139       7.4788      0.00000
    140       7.5517      0.00000
    141       7.5775      0.00000
    142       7.6774      0.00000
    143       7.7106      0.00000
    144       7.7169      0.00000
    145       7.7409      0.00000
    146       7.7762      0.00000
    147       7.7807      0.00000
    148       7.9027      0.00000
    149       7.9444      0.00000
    150       7.9495      0.00000
    151       7.9651      0.00000
    152       8.0245      0.00000
    153       8.0424      0.00000
    154       8.0581      0.00000
    155       8.2256      0.00000
    156       8.2306      0.00000
    157       8.2511      0.00000
    158       8.3428      0.00000
    159       8.3827      0.00000
    160       8.4151      0.00000
    161       8.4512      0.00000

 k-point     2 :       0.2500   -0.2500   -0.2500
  band No.  band energies     occupation 
      1      -6.0339      2.00000
      2      -5.5201      2.00000
      3      -5.4918      2.00000
      4      -5.4794      2.00000
      5      -5.0138      2.00000
      6      -4.9977      2.00000
      7      -4.9667      2.00000
      8      -4.5632      2.00000
      9      -4.4819      2.00000
     10      -4.4701      2.00000
     11      -4.4439      2.00000
     12      -4.1136      2.00000
     13      -4.0808      2.00000
     14      -4.0588      2.00000
     15      -4.0396      2.00000
     16      -3.9979      2.00000
     17      -3.9686      2.00000
     18      -3.8724      2.00000
     19      -3.8214      2.00000
     20      -3.7855      2.00000
     21      -3.3688      2.00000
     22      -3.3515      2.00000
     23      -3.3250      2.00000
     24      -3.0350      2.00000
     25      -2.9966      2.00000
     26      -2.9301      2.00000
     27      -2.8610      2.00000
     28      -2.8377      2.00000
     29      -2.7991      2.00000
     30      -2.7745      2.00000
     31      -2.7431      2.00000
     32      -2.7088      2.00000
     33      -1.3727      2.00000
     34      -1.3448      2.00000
     35      -1.3145      2.00000
     36      -1.2824      2.00000
     37      -1.2734      2.00000
     38      -1.2250      2.00000
     39      -1.1962      2.00000
     40      -1.1605      2.00000
     41      -1.1311      2.00000
     42      -1.0650      2.00000
     43      -1.0302      2.00000
     44      -1.0144      2.00000
     45      -0.9884      2.00000
     46      -0.9252      2.00000
     47      -0.8768      2.00000
     48      -0.2793      2.00000
     49      -0.2479      2.00000
     50      -0.2048      2.00000
     51      -0.1826      2.00000
     52      -0.1614      2.00000
     53      -0.1332      2.00000
     54      -0.1003      2.00000
     55       0.6216      2.00000
     56       0.7001      2.00000
     57       0.7392      2.00000
     58       0.9922      2.00000
     59       1.0226      2.00000
     60       1.0411      2.00000
     61       1.5772      2.00000
     62       1.6011      2.00000
     63       1.6195      2.00000
     64       1.6409      2.00000
     65       1.6556      2.00000
     66       1.6604      2.00000
     67       1.6914      2.00000
     68       1.7106      2.00000
     69       1.7459      2.00000
     70       2.1921      2.00000
     71       2.2257      2.00000
     72       2.2426      2.00000
     73       2.2826      2.00000
     74       2.2937      2.00000
     75       2.3228      2.00000
     76       2.3417      2.00000
     77       2.3559      2.00000
     78       2.3688      2.00000
     79       2.4143      2.00000
     80       2.4448      2.00000
     81       2.4741      2.00000
     82       2.6712      2.00000
     83       2.7118      2.00000
     84       2.7240      2.00000
     85       2.7294      2.00000
     86       2.7517      2.00000
     87       2.7889      2.00000
     88       2.9456      2.00000
     89       2.9739      2.00000
     90       2.9861      2.00000
     91       2.9962      2.00000
     92       3.0167      2.00000
     93       3.0287      2.00000
     94       3.2762      2.00000
     95       3.3093      2.00000
     96       3.3339      2.00000
     97       3.3534      2.00000
     98       3.3936      2.00000
     99       3.4300      2.00000
    100       3.4546      2.00000
    101       3.4725      2.00000
    102       3.5017      2.00000
    103       3.6623      2.00000
    104       3.6840      2.00000
    105       3.7048      2.00000
    106       3.7294      2.00000
    107       3.7437      2.00000
    108       3.7784      2.00000
    109       3.8041      2.00000
    110       3.8182      2.00000
    111       3.8331      2.00000
    112       4.0172      2.00000
    113       4.0762      2.00000
    114       4.1366      2.00000
    115       4.1402      2.00000
    116       4.3050      2.00000
    117       4.3333      2.00000
    118       4.3583      2.00000
    119       4.3816      2.00000
    120       4.4523      2.00000
    121       4.4770      2.00000
    122       4.5410      2.00000
    123       4.5720      2.00000
    124       4.8570      2.00000
    125       4.9071      2.00000
    126       4.9535      2.00000
    127       5.3393      2.00000
    128       5.3882      2.00000
    129       6.4520      0.00000
    130       6.5129      0.00000
    131       6.5563      0.00000
    132       6.9140      0.00000
    133       6.9722      0.00000
    134       7.0226      0.00000
    135       7.1310      0.00000
    136       7.3792      0.00000
    137       7.4178      0.00000
    138       7.4531      0.00000
    139       7.5284      0.00000
    140       7.5576      0.00000
    141       7.5782      0.00000
    142       7.6682      0.00000
    143       7.6944      0.00000
    144       7.7383      0.00000
    145       7.7503      0.00000
    146       7.7655      0.00000
    147       7.7872      0.00000
    148       7.9073      0.00000
    149       7.9448      0.00000
    150       7.9689      0.00000
    151       7.9996      0.00000
    152       8.0231      0.00000
    153       8.0386      0.00000
    154       8.0790      0.00000
    155       8.2040      0.00000
    156       8.2378      0.00000
    157       8.2643      0.00000
    158       8.3684      0.00000
    159       8.4011      0.00000
    160       8.4714      0.00000
    161       8.6070      0.00000

 k-point     3 :       0.2500   -0.2500    0.2500
  band No.  band energies     occupation 
      1      -6.0327      2.00000
      2      -5.5272      2.00000
      3      -5.4968      2.00000
      4      -5.4753      2.00000
      5      -5.0041      2.00000
      6      -4.9809      2.00000
      7      -4.9703      2.00000
      8      -4.5704      2.00000
      9      -4.4953      2.00000
     10      -4.4646      2.00000
     11      -4.4475      2.00000
     12      -4.1354      2.00000
     13      -4.0938      2.00000
     14      -4.0532      2.00000
     15      -4.0415      2.00000
     16      -4.0070      2.00000
     17      -3.9896      2.00000
     18      -3.8129      2.00000
     19      -3.7919      2.00000
     20      -3.7852      2.00000
     21      -3.3635      2.00000
     22      -3.3572      2.00000
     23      -3.3409      2.00000
     24      -3.0513      2.00000
     25      -3.0045      2.00000
     26      -2.9701      2.00000
     27      -2.8369      2.00000
     28      -2.7983      2.00000
     29      -2.7906      2.00000
     30      -2.7770      2.00000
     31      -2.7450      2.00000
     32      -2.7204      2.00000
     33      -1.3631      2.00000
     34      -1.3440      2.00000
     35      -1.3160      2.00000
     36      -1.2874      2.00000
     37      -1.2623      2.00000
     38      -1.2353      2.00000
     39      -1.1857      2.00000
     40      -1.1754      2.00000
     41      -1.1410      2.00000
     42      -1.0606      2.00000
     43      -1.0249      2.00000
     44      -1.0036      2.00000
     45      -0.9829      2.00000
     46      -0.9248      2.00000
     47      -0.8988      2.00000
     48      -0.2531      2.00000
     49      -0.2335      2.00000
     50      -0.2190      2.00000
     51      -0.2093      2.00000
     52      -0.1623      2.00000
     53      -0.1391      2.00000
     54      -0.1136      2.00000
     55       0.6672      2.00000
     56       0.7048      2.00000
     57       0.7389      2.00000
     58       1.0003      2.00000
     59       1.0263      2.00000
     60       1.0325      2.00000
     61       1.5963      2.00000
     62       1.6071      2.00000
     63       1.6181      2.00000
     64       1.6275      2.00000
     65       1.6476      2.00000
     66       1.6618      2.00000
     67       1.6896      2.00000
     68       1.6990      2.00000
     69       1.7280      2.00000
     70       2.1705      2.00000
     71       2.2172      2.00000
     72       2.2450      2.00000
     73       2.2907      2.00000
     74       2.2970      2.00000
     75       2.3215      2.00000
     76       2.3360      2.00000
     77       2.3528      2.00000
     78       2.3759      2.00000
     79       2.4254      2.00000
     80       2.4373      2.00000
     81       2.4722      2.00000
     82       2.6829      2.00000
     83       2.7060      2.00000
     84       2.7221      2.00000
     85       2.7256      2.00000
     86       2.7346      2.00000
     87       2.7704      2.00000
     88       2.9561      2.00000
     89       2.9819      2.00000
     90       2.9907      2.00000
     91       3.0024      2.00000
     92       3.0116      2.00000
     93       3.0306      2.00000
     94       3.2863      2.00000
     95       3.3173      2.00000
     96       3.3367      2.00000
     97       3.3670      2.00000
     98       3.3872      2.00000
     99       3.4116      2.00000
    100       3.4407      2.00000
    101       3.4533      2.00000
    102       3.4843      2.00000
    103       3.6819      2.00000
    104       3.7098      2.00000
    105       3.7233      2.00000
    106       3.7363      2.00000
    107       3.7503      2.00000
    108       3.7800      2.00000
    109       3.7981      2.00000
    110       3.8150      2.00000
    111       3.8404      2.00000
    112       4.0307      2.00000
    113       4.0910      2.00000
    114       4.1246      2.00000
    115       4.1363      2.00000
    116       4.3224      2.00000
    117       4.3414      2.00000
    118       4.3548      2.00000
    119       4.3939      2.00000
    120       4.4381      2.00000
    121       4.4706      2.00000
    122       4.5645      2.00000
    123       4.5792      2.00000
    124       4.8547      2.00000
    125       4.8930      2.00000
    126       4.9067      2.00000
    127       5.3419      2.00000
    128       5.3777      2.00000
    129       6.4901      0.00000
    130       6.5225      0.00000
    131       6.5311      0.00000
    132       6.9114      0.00000
    133       6.9531      0.00000
    134       6.9829      0.00000
    135       7.1234      0.00000
    136       7.4020      0.00000
    137       7.4277      0.00000
    138       7.4594      0.00000
    139       7.5151      0.00000
    140       7.5375      0.00000
    141       7.5691      0.00000
    142       7.6925      0.00000
    143       7.7184      0.00000
    144       7.7249      0.00000
    145       7.7387      0.00000
    146       7.7743      0.00000
    147       7.7877      0.00000
    148       7.8948      0.00000
    149       7.9359      0.00000
    150       7.9612      0.00000
    151       7.9882      0.00000
    152       8.0094      0.00000
    153       8.0358      0.00000
    154       8.0686      0.00000
    155       8.2147      0.00000
    156       8.2374      0.00000
    157       8.2633      0.00000
    158       8.3359      0.00000
    159       8.3662      0.00000
    160       8.4185      0.00000
    161       8.4822      0.00000

 k-point     4 :       0.2500    0.2500   -0.2500
  band No.  band energies     occupation 
      1      -6.0335      2.00000
      2      -5.5219      2.00000
      3      -5.4982      2.00000
      4      -5.4729      2.00000
      5      -5.0107      2.00000
      6      -4.9995      2.00000
      7      -4.9644      2.00000
      8      -4.5599      2.00000
      9      -4.4916      2.00000
     10      -4.4712      2.00000
     11      -4.4350      2.00000
     12      -4.1150      2.00000
     13      -4.0789      2.00000
     14      -4.0488      2.00000
     15      -4.0370      2.00000
     16      -4.0225      2.00000
     17      -3.9859      2.00000
     18      -3.8623      2.00000
     19      -3.8142      2.00000
     20      -3.7755      2.00000
     21      -3.3872      2.00000
     22      -3.3434      2.00000
     23      -3.3146      2.00000
     24      -3.0331      2.00000
     25      -2.9836      2.00000
     26      -2.9644      2.00000
     27      -2.8539      2.00000
     28      -2.8096      2.00000
     29      -2.7969      2.00000
     30      -2.7677      2.00000
     31      -2.7472      2.00000
     32      -2.7326      2.00000
     33      -1.3695      2.00000
     34      -1.3345      2.00000
     35      -1.3067      2.00000
     36      -1.2924      2.00000
     37      -1.2614      2.00000
     38      -1.2310      2.00000
     39      -1.2101      2.00000
     40      -1.1699      2.00000
     41      -1.1216      2.00000
     42      -1.0784      2.00000
     43      -1.0297      2.00000
     44      -0.9966      2.00000
     45      -0.9718      2.00000
     46      -0.9398      2.00000
     47      -0.8947      2.00000
     48      -0.2656      2.00000
     49      -0.2382      2.00000
     50      -0.2202      2.00000
     51      -0.1825      2.00000
     52      -0.1654      2.00000
     53      -0.1258      2.00000
     54      -0.1030      2.00000
     55       0.6531      2.00000
     56       0.6917      2.00000
     57       0.7114      2.00000
     58       0.9872      2.00000
     59       1.0300      2.00000
     60       1.0485      2.00000
     61       1.5689      2.00000
     62       1.6025      2.00000
     63       1.6292      2.00000
     64       1.6378      2.00000
     65       1.6499      2.00000
     66       1.6599      2.00000
     67       1.6834      2.00000
     68       1.7068      2.00000
     69       1.7457      2.00000
     70       2.2100      2.00000
     71       2.2236      2.00000
     72       2.2372      2.00000
     73       2.2657      2.00000
     74       2.3017      2.00000
     75       2.3209      2.00000
     76       2.3369      2.00000
     77       2.3621      2.00000
     78       2.3717      2.00000
     79       2.4123      2.00000
     80       2.4649      2.00000
     81       2.4915      2.00000
     82       2.6843      2.00000
     83       2.6934      2.00000
     84       2.7119      2.00000
     85       2.7266      2.00000
     86       2.7515      2.00000
     87       2.7750      2.00000
     88       2.9552      2.00000
     89       2.9724      2.00000
     90       2.9894      2.00000
     91       3.0008      2.00000
     92       3.0283      2.00000
     93       3.0425      2.00000
     94       3.2763      2.00000
     95       3.3028      2.00000
     96       3.3341      2.00000
     97       3.3479      2.00000
     98       3.3911      2.00000
     99       3.4052      2.00000
    100       3.4336      2.00000
    101       3.4721      2.00000
    102       3.4878      2.00000
    103       3.6630      2.00000
    104       3.6889      2.00000
    105       3.7308      2.00000
    106       3.7376      2.00000
    107       3.7543      2.00000
    108       3.7681      2.00000
    109       3.7935      2.00000
    110       3.8113      2.00000
    111       3.8617      2.00000
    112       4.0139      2.00000
    113       4.1008      2.00000
    114       4.1069      2.00000
    115       4.1334      2.00000
    116       4.2986      2.00000
    117       4.3322      2.00000
    118       4.3568      2.00000
    119       4.3881      2.00000
    120       4.4331      2.00000
    121       4.4596      2.00000
    122       4.5635      2.00000
    123       4.5851      2.00000
    124       4.8426      2.00000
    125       4.9175      2.00000
    126       4.9585      2.00000
    127       5.3517      2.00000
    128       5.3963      2.00000
    129       6.4711      0.00000
    130       6.5122      0.00000
    131       6.5395      0.00000
    132       6.9238      0.00000
    133       6.9655      0.00000
    134       6.9894      0.00000
    135       7.1513      0.00000
    136       7.3830      0.00000
    137       7.4147      0.00000
    138       7.4606      0.00000
    139       7.5064      0.00000
    140       7.5334      0.00000
    141       7.5727      0.00000
    142       7.6901      0.00000
    143       7.7097      0.00000
    144       7.7332      0.00000
    145       7.7380      0.00000
    146       7.7678      0.00000
    147       7.7843      0.00000
    148       7.9156      0.00000
    149       7.9632      0.00000
    150       7.9723      0.00000
    151       8.0056      0.00000
    152       8.0166      0.00000
    153       8.0314      0.00000
    154       8.0477      0.00000
    155       8.2288      0.00000
    156       8.2508      0.00000
    157       8.2652      0.00000
    158       8.3794      0.00000
    159       8.4644      0.00000
    160       8.5519      0.00000
    161       8.5820      0.00000


--------------------------------------------------------------------------------------------------------


 soft charge-density along one line, spin component           1
         0         1         2         3         4         5         6         7         8         9
 total charge-density along one line
 
 pseudopotential strength for first ion, spin component:           1
 18.443  25.732  -0.002   0.002  -0.002  -0.004   0.003  -0.003
 25.732  35.905  -0.003   0.002  -0.003  -0.006   0.004  -0.005
 -0.002  -0.003   4.183  -0.000   0.000   7.794  -0.000   0.000
  0.002   0.002  -0.000   4.183  -0.000  -0.000   7.794  -0.000
 -0.002  -0.003   0.000  -0.000   4.183   0.000  -0.000   7.794
 -0.004  -0.006   7.794  -0.000   0.000  14.535  -0.001   0.000
  0.003   0.004  -0.000   7.794  -0.000  -0.001  14.534  -0.001
 -0.003  -0.005   0.000  -0.000   7.794   0.000  -0.001  14.534
 total augmentation occupancy for first ion, spin component:           1
  5.949  -2.290  -0.067  -0.022  -0.120   0.021   0.009   0.041
 -2.290   0.994   0.029   0.030   0.056  -0.009  -0.008  -0.019
 -0.067   0.029   3.291  -0.114   0.120  -0.796   0.037  -0.039
 -0.022   0.030  -0.114   3.307  -0.121   0.037  -0.803   0.041
 -0.120   0.056   0.120  -0.121   3.277  -0.039   0.041  -0.790
  0.021  -0.009  -0.796   0.037  -0.039   0.201  -0.011   0.012
  0.009  -0.008   0.037  -0.803   0.041  -0.011   0.203  -0.013
  0.041  -0.019  -0.039   0.041  -0.790   0.012  -0.013   0.198


------------------------ aborting loop because EDIFF is reached ----------------------------------------


    CHARGE:  cpu time      2.2584: real time      2.2635
    FORLOC:  cpu time      0.0377: real time      0.0378
    FORNL :  cpu time      7.5206: real time      7.5372
    STRESS:  cpu time     28.3745: real time     28.4380
    FORCOR:  cpu time      0.1658: real time      0.1662
    FORHAR:  cpu time      0.2032: real time      0.2037
    MIXING:  cpu time      0.1390: real time      0.1393
    OFIELD:  cpu time      0.0000: real time      0.0000

  FORCE on cell =-STRESS in cart. coord.  units (eV):
  Direction    XX          YY          ZZ          XY          YZ          ZX
  --------------------------------------------------------------------------------------
  Alpha Z   105.21753   105.21753   105.21753
  Ewald   -2417.52546 -2420.93899 -2417.32425     9.73856     5.74267     2.98456
  Hartree   162.66817   160.66244   164.38621     0.45876     0.45850     0.89801
  E(xc)    -807.78135  -807.76018  -807.76948    -0.12330    -0.04908    -0.01672
  Local    -950.66597  -945.16369  -952.83847    -9.51053    -5.93543    -3.79219
  n-local  2482.60465  2482.08458  2482.17254     2.66162     1.27577     0.40737
  augment  -372.17742  -372.15546  -372.16194    -0.11247    -0.04570    -0.02197
  Kinetic  1795.49750  1795.81510  1795.84575    -1.68172    -1.25418    -0.08076
  Fock        0.00000     0.00000     0.00000     0.00000     0.00000     0.00000
  -------------------------------------------------------------------------------------
  Total      -2.16235    -2.23867    -2.47211     1.43093     0.19254     0.37828
  in kB      -2.64369    -2.73699    -3.02241     1.74945     0.23539     0.46248
  external pressure =       -2.80 kB  Pullay stress =        0.00 kB


 VOLUME and BASIS-vectors are now :
 -----------------------------------------------------------------------------
  energy-cutoff  :      250.00
  volume of cell :     1310.47
      direct lattice vectors                 reciprocal lattice vectors
    10.942732510  0.000000000  0.000000000     0.091384853 -0.000023486  0.000031008
     0.002812450 10.943469640  0.000000000     0.000000000  0.091378697 -0.000059166
    -0.003711310  0.007085500 10.943230450     0.000000000  0.000000000  0.091380695

  length of vectors
    10.942732510 10.943470001 10.943233373     0.091384861  0.091378716  0.091380695


 FORCES acting on ions
    electron-ion (+dipol)            ewald-force                    non-local-force                 convergence-correction
 -----------------------------------------------------------------------------------------------
   -.517E+01 -.167E+01 -.679E+00   0.515E+01 0.193E+01 0.461E+00   0.821E+00 0.434E+00 -.266E+00   -.423E-03 0.768E-03 -.404E-03
   -.526E+00 -.205E+01 -.354E+00   0.301E+00 0.241E+01 0.644E+00   0.292E+00 0.270E+00 -.124E+00   -.123E-02 -.383E-03 -.114E-02
   -.229E+01 -.365E+01 -.760E-01   0.228E+01 0.354E+01 0.183E-01   -.377E-02 0.685E+00 -.348E+00   -.195E-02 -.157E-02 0.135E-02
   -.277E+01 -.668E+01 -.753E+00   0.296E+01 0.667E+01 0.676E+00   0.176E+00 0.616E+00 -.131E-01   -.103E-02 -.144E-02 -.118E-02
   -.487E+01 -.290E+01 -.108E+01   0.473E+01 0.287E+01 0.110E+01   0.247E+00 -.474E+00 -.907E-01   -.297E-02 -.169E-03 -.595E-03
   0.331E+01 0.688E+00 -.225E+01   -.282E+01 -.654E+00 0.187E+01   -.432E+00 -.622E+00 0.639E+00   0.430E-03 0.699E-03 -.652E-03
   -.467E+01 -.111E+01 0.129E+01   0.422E+01 0.146E+01 -.139E+01   0.607E+00 -.481E+00 0.149E+00   -.723E-03 -.857E-03 0.183E-02
   -.152E+01 -.353E+01 -.294E+00   0.132E+01 0.344E+01 0.184E+00   0.306E+00 0.311E+00 -.466E+00   -.318E-03 0.172E-04 0.897E-03
   -.139E+01 -.244E+01 -.177E+01   0.147E+01 0.203E+01 0.151E+01   0.404E+00 -.533E+00 0.843E-01   0.911E-03 0.373E-03 0.165E-03
   -.102E+00 -.499E+01 0.214E+01   0.224E+00 0.458E+01 -.192E+01   -.148E+00 0.635E+00 0.786E+00   -.109E-02 -.409E-03 0.100E-02
   0.117E+01 -.373E+01 -.468E+01   -.975E+00 0.326E+01 0.417E+01   -.120E+01 0.380E+00 0.113E+01   -.716E-05 -.911E-03 -.277E-03
   -.729E+01 -.221E+01 0.475E+01   0.695E+01 0.230E+01 -.440E+01   0.611E+00 -.184E+00 -.736E-01   -.148E-02 -.241E-02 0.723E-03
   -.320E+00 -.253E+01 -.252E+00   0.667E+00 0.286E+01 -.141E+00   -.903E+00 0.923E+00 0.134E+00   -.116E-02 -.136E-02 -.863E-03
   0.164E+01 0.105E+01 0.805E-01   -.140E+01 -.872E+00 -.354E+00   0.187E+00 -.247E+00 0.849E-01   0.269E-04 -.555E-05 0.674E-03
   0.247E+01 -.455E+01 -.592E+01   -.181E+01 0.443E+01 0.558E+01   -.206E+00 0.253E+00 0.240E+00   0.521E-03 -.281E-03 -.154E-02
   0.205E+01 0.189E+01 -.232E+01   -.139E+01 -.144E+01 0.195E+01   -.848E+00 -.127E+01 0.477E+00   -.294E-03 -.170E-02 0.773E-03
   0.864E+00 0.699E+00 -.143E+01   -.523E+00 -.364E+00 0.156E+01   -.416E+00 -.124E+00 -.423E+00   -.775E-03 -.800E-03 0.187E-02
   0.541E+00 0.248E+01 -.107E+01   -.463E+00 -.244E+01 0.924E+00   -.702E+00 0.343E-01 0.466E+00   -.412E-03 0.444E-03 -.112E-02
   0.339E+01 0.543E+01 0.136E+01   -.319E+01 -.490E+01 -.956E+00   -.846E+00 -.974E+00 -.694E+00   -.272E-03 0.111E-02 0.933E-03
   -.891E+00 0.968E+01 -.220E+01   0.951E+00 -.900E+01 0.185E+01   0.566E+00 -.191E+01 0.687E+00   -.853E-03 0.130E-02 -.500E-03
   -.180E+01 0.309E+01 -.387E+01   0.157E+01 -.330E+01 0.348E+01   0.332E+00 -.486E-01 0.617E+00   -.743E-03 0.112E-03 0.183E-03
   -.295E+01 -.420E+01 0.408E+01   0.252E+01 0.385E+01 -.353E+01   0.984E+00 0.843E+00 -.100E+01   -.283E-04 -.788E-03 0.358E-03
   -.115E+01 0.314E+01 -.348E+01   0.812E+00 -.313E+01 0.307E+01   0.847E+00 0.271E+00 0.708E+00   -.132E-02 0.139E-03 0.666E-03
   -.714E+00 0.227E+01 -.308E+01   0.520E+00 -.181E+01 0.288E+01   0.137E+00 0.624E-01 0.126E+01   -.236E-03 0.918E-03 0.358E-03
   -.301E+01 0.752E-01 0.174E+01   0.305E+01 -.204E+00 -.155E+01   0.752E-01 -.549E-01 -.263E+00   0.129E-02 -.505E-03 -.124E-02
   0.160E+01 0.145E+01 0.806E+00   -.165E+01 -.221E+01 -.803E+00   -.326E+00 0.884E-01 -.136E+00   0.543E-04 0.391E-03 0.400E-03
   -.443E+01 -.128E+01 0.466E+01   0.386E+01 0.755E+00 -.413E+01   0.456E+00 0.132E+01 -.122E+01   0.154E-02 -.266E-05 -.135E-02
   -.774E+01 -.164E+01 0.157E+01   0.725E+01 0.894E+00 -.168E+01   0.170E+01 0.920E+00 -.560E+00   -.143E-02 0.916E-03 0.372E-03
   -.510E+01 0.562E+01 -.263E+00   0.482E+01 -.519E+01 0.614E-01   0.378E+00 -.582E+00 0.376E+00   0.160E-02 0.589E-03 -.136E-02
   -.136E+01 0.535E+01 0.526E+01   0.153E+01 -.468E+01 -.474E+01   0.925E+00 -.584E+00 -.120E+01   -.194E-03 -.675E-03 0.674E-03
   -.263E+01 0.558E+01 0.115E+01   0.258E+01 -.536E+01 -.919E+00   0.929E+00 -.103E+01 -.220E+00   0.621E-03 0.164E-02 -.194E-02
   -.925E+00 -.190E+01 0.132E+01   0.115E+01 0.174E+01 -.906E+00   -.117E+00 0.185E+00 -.402E+00   0.147E-03 0.133E-02 0.549E-03
   0.513E+01 0.429E+00 -.562E+01   -.466E+01 -.229E+00 0.503E+01   -.135E+01 -.168E-01 0.142E+01   0.123E-02 -.302E-03 -.197E-02
   0.301E+01 -.467E+01 0.117E+01   -.268E+01 0.493E+01 -.102E+01   -.796E+00 0.253E+00 -.120E+00   0.194E-02 0.362E-04 -.465E-03
   0.583E+01 0.312E+01 -.599E+01   -.534E+01 -.246E+01 0.525E+01   -.317E+00 -.145E+01 0.803E+00   0.145E-02 -.731E-03 0.464E-03
   0.311E+01 -.433E+01 0.210E+01   -.308E+01 0.429E+01 -.184E+01   -.175E+00 0.593E+00 0.231E+00   0.656E-03 0.361E-03 -.611E-03
   0.433E+01 -.602E+01 0.782E+00   -.440E+01 0.567E+01 -.486E+00   -.565E+00 0.433E+00 -.821E+00   0.168E-02 -.299E-03 -.734E-03
   -.407E+00 -.538E+01 -.121E+01   0.395E+00 0.473E+01 0.900E+00   -.767E-01 0.610E+00 0.596E+00   0.163E-03 -.899E-03 -.107E-02
   0.107E+00 -.429E+01 -.258E+01   -.173E+00 0.410E+01 0.240E+01   -.202E+00 0.588E+00 0.924E+00   0.837E-03 -.657E-03 -.500E-03
   0.329E+01 0.716E+00 0.162E+01   -.347E+01 -.660E+00 -.148E+01   0.165E+00 -.618E+00 -.971E+00   0.708E-03 0.130E-02 0.833E-03
   0.142E+01 -.161E+01 0.174E+01   -.133E+01 0.135E+01 -.163E+01   -.584E+00 -.804E-01 -.554E+00   0.450E-03 -.500E-03 0.149E-02
   0.109E+01 0.290E+00 0.249E+01   -.108E+01 0.373E-01 -.232E+01   0.110E+00 -.291E+00 -.189E+00   0.110E-02 -.304E-03 0.137E-04
   -.434E+01 -.483E+01 0.543E+01   0.398E+01 0.457E+01 -.522E+01   0.660E+00 0.603E+00 -.186E+01   0.427E-04 -.183E-03 0.102E-02
   0.459E+01 -.746E+01 0.715E-01   -.445E+01 0.703E+01 -.162E+00   -.906E+00 0.122E+01 -.451E-01   -.487E-03 -.857E-03 -.331E-03
   -.149E+01 -.216E+00 0.204E+01   0.118E+01 0.502E+00 -.196E+01   0.924E+00 -.687E+00 -.266E+00   -.924E-03 -.122E-02 0.940E-03
   -.209E+01 0.214E+01 0.223E+01   0.198E+01 -.189E+01 -.234E+01   0.575E+00 -.554E-01 -.247E+00   -.116E-03 -.223E-02 -.142E-03
   -.651E+01 -.592E+01 0.224E+01   0.637E+01 0.574E+01 -.201E+01   0.140E+00 -.143E-01 0.102E-01   0.337E-03 0.164E-03 0.164E-03
   0.420E+01 -.316E+01 -.349E+01   -.384E+01 0.300E+01 0.318E+01   -.206E+00 -.163E+00 0.811E+00   0.430E-03 -.124E-04 0.289E-03
   0.278E+00 0.130E+01 0.310E+01   -.538E+00 -.105E+01 -.249E+01   -.208E+00 -.537E-01 -.122E+01   0.151E-02 -.222E-03 -.137E-03
   0.104E+01 0.135E+02 -.229E+01   -.109E+01 -.125E+02 0.195E+01   0.953E+00 -.201E+01 0.159E+00   0.495E-03 0.604E-03 -.111E-03
   -.676E+00 0.472E+01 0.208E+01   0.418E+00 -.425E+01 -.175E+01   0.124E+00 -.273E+00 -.482E+00   0.397E-03 0.119E-02 -.621E-03
   0.204E+01 0.379E+01 0.684E+00   -.223E+01 -.375E+01 -.644E+00   0.217E+00 -.103E+01 -.375E+00   0.538E-03 0.962E-03 0.281E-03
   -.463E+00 0.127E+01 -.166E+01   0.811E-02 -.188E+01 0.158E+01   0.456E+00 0.861E+00 0.640E-01   0.211E-02 -.154E-03 -.542E-03
   0.314E+01 0.608E+00 0.175E+01   -.293E+01 -.970E+00 -.132E+01   -.945E+00 0.573E+00 -.343E+00   0.120E-03 -.475E-03 0.880E-04
   -.641E+01 0.496E+01 0.436E+01   0.558E+01 -.498E+01 -.384E+01   0.180E+01 -.392E+00 -.916E+00   -.784E-03 0.311E-03 -.164E-02
   0.155E+01 -.205E+01 -.423E+00   -.197E+01 0.171E+01 0.782E+00   0.497E+00 0.157E+01 -.140E+00   0.848E-03 0.343E-03 0.183E-03
   0.350E+01 -.303E+01 -.286E+01   -.350E+01 0.234E+01 0.278E+01   0.184E+00 0.111E+01 0.848E+00   -.939E-05 -.614E-04 0.766E-03
   0.464E+01 0.156E+01 -.247E+01   -.436E+01 -.197E+01 0.200E+01   -.104E+01 0.448E-02 0.710E+00   -.637E-03 0.127E-02 -.336E-03
   -.118E+01 0.167E+01 -.443E+01   0.744E+00 -.171E+01 0.398E+01   0.448E+00 0.196E+00 0.789E+00   -.177E-02 0.393E-03 0.741E-03
   -.527E+00 0.442E+01 0.134E+01   0.127E+00 -.476E+01 -.145E+01   0.698E+00 0.585E-01 0.100E+00   -.648E-03 -.325E-03 -.547E-03
   0.761E+01 0.380E+01 0.247E+01   -.722E+01 -.388E+01 -.214E+01   -.131E+01 0.384E+00 -.108E+01   -.127E-02 0.623E-03 0.138E-02
   -.222E+00 -.393E+01 0.314E+01   0.540E+00 0.381E+01 -.288E+01   -.134E+00 0.122E+01 0.160E+00   -.201E-03 0.110E-02 0.111E-03
   0.442E+01 0.516E+01 -.693E+01   -.370E+01 -.488E+01 0.648E+01   -.186E+01 -.111E+01 0.210E+01   -.136E-02 0.201E-02 0.497E-03
   0.649E+01 0.592E+01 0.485E+01   -.592E+01 -.543E+01 -.388E+01   -.198E+01 -.105E+01 -.528E+00   0.885E-03 0.275E-03 -.236E-04
 -----------------------------------------------------------------------------------------------
   -.941E-01 -.760E-01 0.947E-01   0.426E-13 -.163E-12 0.755E-14   0.122E+00 0.952E-01 -.781E-01   -.207E-02 -.201E-02 -.911E-03
 
 
 POSITION                                       TOTAL-FORCE (eV/Angst)
 -----------------------------------------------------------------------------------
     10.91934     10.93748      0.08962         0.800512      0.702327     -0.483467
      2.69556      2.70612      0.00594         0.065154      0.625197      0.164988
      2.76977     10.89414      2.77353        -0.016717      0.577041     -0.404424
     10.89605      2.74845      2.75448         0.360144      0.602348     -0.091821
      1.36733      1.39745      1.45225         0.102257     -0.506771     -0.072112
      4.06043      4.18589      1.34084         0.059939     -0.586939      0.257472
      4.22350      1.32452      4.05012         0.152543     -0.137571      0.048346
      1.30126      4.12477      4.18477         0.105652      0.212775     -0.575180
     10.90187      0.07576      5.45738         0.487601     -0.941838     -0.172556
      2.76633      2.65382      5.31400        -0.027484      0.227989      1.010208
      2.89953      0.01157      8.25412        -1.011837     -0.095443      0.624891
      0.15040      2.75550      8.07473         0.267352     -0.093161      0.284663
      1.53935      1.20682      6.79596        -0.556986      1.247229     -0.260963
      4.05424      4.00154      6.86448         0.427122     -0.072894     -0.187771
      4.15342      1.35919      9.68671         0.453198      0.125482     -0.097365
      1.37140      4.19066      9.58959        -0.198169     -0.830108      0.106260
      0.01895      5.56234      0.00889        -0.075640      0.210396     -0.293489
      2.77096      8.27327     10.91636        -0.624665      0.070320      0.323255
      2.69906      5.54752      2.77485        -0.645560     -0.443762     -0.287417
     10.78272      8.32770      2.67398         0.625275     -1.227780      0.331574
      1.33970      6.97190      1.36842         0.098515     -0.266756      0.221558
      4.12392      9.58992      1.36108         0.551590      0.487334     -0.459767
      4.00976      6.87226      4.14829         0.506207      0.285635      0.297197
      1.28790      9.56933      3.99315        -0.058293      0.519298      1.061718
     10.87620      5.54503      5.53387         0.118877     -0.184282     -0.076858
      2.66375      8.30576      5.48064        -0.372275     -0.673529     -0.133330
      2.79740      5.43392      8.27807        -0.115416      0.795730     -0.688444
     10.91643      8.31076      8.22611         1.212073      0.177348     -0.668097
      1.36844      6.87824      6.89814         0.090872     -0.149813      0.173209
      4.05042      9.54717      6.89146         1.087960      0.082277     -0.684169
      4.09772      6.93254      9.59276         0.875569     -0.812483      0.003041
      1.37421      9.66263      9.59636         0.103903      0.030510      0.011543
      5.67118     10.91458     10.88460        -0.873331      0.181881      0.839017
      8.34043      2.73746     10.88204        -0.457920      0.512545      0.036043
      8.14448      0.00985      2.78675         0.170598     -0.784434      0.063387
      5.51680      2.72440      2.61605        -0.143570      0.547918      0.491785
      6.99257      1.39103      1.34934        -0.635801      0.089635     -0.526396
      9.60482      4.15345      1.33327        -0.089122     -0.039746      0.279595
      9.54868      1.35870      4.04228        -0.268167      0.396704      0.742892
      6.78350      4.11522      4.18418        -0.023349     -0.561084     -0.825309
      5.54043     10.94580      5.59708        -0.490616     -0.335342     -0.448790
      8.15141      2.68494      5.47897         0.121512      0.035767     -0.020844
      8.35913      0.04261      8.34782         0.305050      0.348881     -1.650465
      5.53246      2.68913      8.29426        -0.761440      0.783292     -0.136107
      6.87041      1.35855      6.97364         0.622130     -0.402824     -0.194100
      9.53642      4.03342      6.83237         0.471003      0.187976     -0.350527
      9.77548      1.45520      9.54503        -0.003540     -0.191531      0.244061
      6.86529      4.16069      9.58440         0.147529     -0.322853      0.499175
      5.52198      5.52110      0.06895        -0.468005      0.188326     -0.607959
      8.10924      8.24907      0.02598         0.902940     -0.978292     -0.185004
      8.20299      5.42609      2.79778        -0.133069      0.194878     -0.156024
      5.39497      8.28016      2.81771         0.030117     -0.984204     -0.334833
      6.81975      6.85642      1.48857         0.002905      0.243438     -0.023014
      9.49019      9.63145      1.32979        -0.736956      0.210462      0.091456
      9.48160      6.89669      4.12122         0.964478     -0.415421     -0.396775
      6.81936      9.47936      4.17251         0.077214      1.235908      0.217724
      5.38360      5.44558      5.47731         0.178127      0.424371      0.762544
      8.22602      8.20283      5.51765        -0.764736     -0.400253      0.237397
      8.29046      5.43456      8.21898         0.010589      0.158836      0.333621
      5.50908      8.23367      8.19598         0.297983     -0.287417     -0.011309
      6.91396      6.76144      6.90899        -0.925804      0.299130     -0.760068
      9.57100      9.55897      6.79651         0.182881      1.092550      0.413921
      9.63929      6.95106      9.47137        -1.148122     -0.832297      1.655162
      7.00127      9.60738      9.47965        -1.410782     -0.552901      0.437054
 -----------------------------------------------------------------------------------
    total drift:                                0.025921      0.017156      0.015692


--------------------------------------------------------------------------------------------------------



  FREE ENERGIE OF THE ION-ELECTRON SYSTEM (eV)
  ---------------------------------------------------
  free  energy   TOTEN  =      -344.44323125 eV

  energy  without entropy=     -344.44323125  energy(sigma->0) =     -344.44323125
 


--------------------------------------------------------------------------------------------------------


    POTLOK:  cpu time      0.1694: real time      0.1698


--------------------------------------------------------------------------------------------------------


 writing wavefunctions
     LOOP+:  cpu time    216.6696: real time    220.4709
    4ORBIT:  cpu time      0.0000: real time      0.0000

 total amount of memory used by VASP MPI-rank0    37803. kBytes
=======================================================================

   base      :      30000. kBytes
   nonlr-proj:       1184. kBytes
   fftplans  :        841. kBytes
   grid      :       1174. kBytes
   one-center:          9. kBytes
   wavefun   :       4595. kBytes
 
  
  
 General timing and accounting informations for this job:
 ========================================================
  
                  Total CPU time used (sec):      259.557
                            User time (sec):      259.372
                          System time (sec):        0.185
                         Elapsed time (sec):      265.506
  
                   Maximum memory used (kb):      211660.
                   Average memory used (kb):          N/A
  
                          Minor page faults:        19515
                          Major page faults:         8222
                 Voluntary context switches:         4326
