 vasp.6.4.2 20Jul23 (build Jun 27 2024 19:57:08) complex                        
  
 executed on                 T2A5 date 2026.01.13  23:36:23
 running   28 mpi-ranks, with    1 threads/rank, on    1 nodes
 distrk:  each k-point on   28 cores,    1 groups
 distr:  one band on NCORE=  28 cores,    1 groups


--------------------------------------------------------------------------------------------------------


 INCAR:
   ISTART = 1
   ICHARG = 1
   LWAVE = .T.
   LCHARG = .T.
   ENCUT = 250
   PREC = Normal
   ADDGRID = .F.
   EDIFF = 1E-4
   LREAL = Auto
   ALGO = Fast
   NSW = 0
   IBRION = -1
   ISMEAR = 0
   SIGMA = 0.1
   NPAR = 1
   KPAR = 1
   SYMPREC = 1E-4

 POTCAR:    PAW_PBE Si 05Jan2001                  
 POTCAR:    PAW_PBE Si 05Jan2001                  
   SHA256 =  79d9987ad8750f624c4d6acb2a16d13abf6a777132adc04dc6c8399be72b42bb Si/POTCAR             
   COPYR  = (c) Copyright 05Jan2001 Georg Kresse                                                    
   COPYR  = This file is part of the software VASP. Any use, copying, and all other rights are regul
   COPYR  = If you do not have a valid VASP license, you may not use, copy or distribute this file. 
   VRHFIN =Si: s2p2                                                                                 
   LEXCH  = PE                                                                                      
   EATOM  =   103.0669 eV,    7.5752 Ry                                                             
                                                                                                    
   TITEL  = PAW_PBE Si 05Jan2001                                                                    
   LULTRA =        F    use ultrasoft PP ?                                                          
   IUNSCR =        1    unscreen: 0-lin 1-nonlin 2-no                                               
   RPACOR =    1.500    partial core radius                                                         
   POMASS =   28.085; ZVAL   =    4.000    mass and valenz                                          
   RCORE  =    1.900    outmost cutoff radius                                                       
   RWIGS  =    2.480; RWIGS  =    1.312    wigner-seitz radius (au A)                               
   ENMAX  =  245.345; ENMIN  =  184.009 eV                                                          
   ICORE  =        2    local potential                                                             
   LCOR   =        T    correct aug charges                                                         
   LPAW   =        T    paw PP                                                                      
   EAUG   =  322.069                                                                                
   DEXC   =    0.000                                                                                
   RMAX   =    1.950    core radius for proj-oper                                                   
   RAUG   =    1.300    factor for augmentation sphere                                              
   RDEP   =    1.993    radius for radial grids                                                     
   RDEPT  =    1.837    core radius for aug-charge                                                  
                                                                                                    
   Atomic configuration                                                                             
    6 entries                                                                                       
     n  l   j            E        occ.                                                              
     1  0  0.50     -1785.8828   2.0000                                                             
     2  0  0.50      -139.4969   2.0000                                                             
     2  1  1.50       -95.5546   6.0000                                                             
     3  0  0.50       -10.8127   2.0000                                                             
     3  1  0.50        -4.0811   2.0000                                                             
     3  2  1.50        -4.0817   0.0000                                                             
   Description                                                                                      
     l       E           TYP  RCUT    TYP  RCUT                                                     
     0    -10.8127223     23  1.900                                                                 
     0     -7.6451159     23  1.900                                                                 
     1     -4.0811372     23  1.900                                                                 
     1      2.4879257     23  1.900                                                                 
     2     -4.0817478      7  1.900                                                                 
  local pseudopotential read in
  partial core-charges read in
  partial kinetic energy density read in
  atomic valenz-charges read in
  non local Contribution for L=           0  read in
    real space projection operators read in
  non local Contribution for L=           0  read in
    real space projection operators read in
  non local Contribution for L=           1  read in
    real space projection operators read in
  non local Contribution for L=           1  read in
    real space projection operators read in
    PAW grid and wavefunctions read in
 
   number of l-projection  operators is LMAX  =           4
   number of lm-projection operators is LMMAX =           8
 
 Optimization of the real space projectors (new method)

 maximal supplied QI-value         = 19.84
 optimisation between [QCUT,QGAM] = [  7.94, 16.07] = [ 17.64, 72.34] Ry 
 Optimized for a Real-space Cutoff    1.55 Angstroem

   l    n(q)    QCUT    max X(q) W(low)/X(q) W(high)/X(q)  e(spline) 
   0      7     7.937   159.560    0.97E-04    0.31E-03    0.13E-06
   0      7     7.937   115.863    0.95E-04    0.31E-03    0.13E-06
   1      7     7.937    88.339    0.40E-03    0.66E-03    0.12E-06
   1      7     7.937    48.592    0.39E-03    0.64E-03    0.12E-06
  PAW_PBE Si 05Jan2001                  :
 energy of atom  1       EATOM= -103.0669
 kinetic energy error for atom=    0.0052 (will be added to EATOM!!)
 
 
 POSCAR: Si
  positions in cartesian coordinates
  No initial velocities read in
 exchange correlation table for  LEXCH =        8
   RHO(1)=    0.500       N(1)  =     2000
   RHO(2)=  100.500       N(2)  =     4000
 


--------------------------------------------------------------------------------------------------------


 ion  position               nearest neighbor table
   1  0.003  0.006  0.002-  54 2.35  32 2.36  47 2.38   5 2.39
   2  0.262  0.251  0.003-  15 2.30   6 2.33   5 2.33  16 2.38
   3  0.256  0.999  0.255-  24 2.29  22 2.35   7 2.36   5 2.43
   4  0.001  0.253  0.247-  39 2.32   5 2.34  38 2.37   8 2.41
   5  0.132  0.133  0.126-   2 2.33   4 2.34   1 2.39   3 2.43
   6  0.374  0.381  0.132-  19 2.26  49 2.30   2 2.33  36 2.34
   7  0.373  0.131  0.383-  10 2.33  41 2.34  36 2.35   3 2.36
   8  0.133  0.376  0.375-  10 2.30  25 2.30  19 2.35   4 2.41
   9  0.008  0.011  0.508-  13 2.26  39 2.32  62 2.40  24 2.41
  10  0.253  0.259  0.505-   8 2.30   7 2.33  14 2.36  13 2.41
  11  0.254  0.008  0.753-  30 2.36  13 2.36  15 2.36  32 2.44
  12  0.997  0.254  0.762-  47 2.28  46 2.31  13 2.38  16 2.41
  13  0.124  0.132  0.631-   9 2.26  11 2.36  12 2.38  10 2.41
  14  0.377  0.386  0.630-  27 2.30  57 2.33  44 2.36  10 2.36
  15  0.382  0.136  0.874-   2 2.30  44 2.34  33 2.34  11 2.36
  16  0.135  0.381  0.880-  27 2.33   2 2.38  17 2.38  12 2.41
  17  0.006  0.500  0.011-  38 2.33  21 2.34  16 2.38  63 2.42
  18  0.252  0.748  0.005-  31 2.29  22 2.33  21 2.35  32 2.35
  19  0.261  0.503  0.255-   6 2.26  23 2.27  21 2.32   8 2.35
  20  0.010  0.760  0.259-  24 2.32  54 2.33  21 2.41  55 2.45
  21  0.133  0.623  0.135-  19 2.32  17 2.34  18 2.35  20 2.41
  22  0.377  0.869  0.131-  18 2.33  52 2.33   3 2.35  33 2.43
  23  0.380  0.623  0.376-  19 2.27  57 2.37  26 2.39  52 2.46
  24  0.136  0.881  0.382-   3 2.29  20 2.32  26 2.33   9 2.41
  25  0.015  0.499  0.500-  29 2.30   8 2.30  46 2.37  55 2.39
  26  0.258  0.754  0.504-  30 2.32  24 2.33  29 2.34  23 2.39
  27  0.255  0.505  0.755-  14 2.30  16 2.33  31 2.33  29 2.37
  28  0.000  0.748  0.756-  63 2.22  62 2.37  32 2.40  29 2.40
  29  0.130  0.627  0.623-  25 2.30  26 2.34  27 2.37  28 2.40
  30  0.377  0.880  0.628-  26 2.32  60 2.34  11 2.36  41 2.42
  31  0.374  0.636  0.877-  18 2.29  60 2.31  27 2.33  49 2.49
  32  0.128  0.876  0.882-  18 2.35   1 2.36  28 2.40  11 2.44
  33  0.497  0.012  0.007-  15 2.34  64 2.39  37 2.40  22 2.43
  34  0.754  0.255  0.008-  38 2.33  47 2.33  37 2.37  48 2.38
  35  0.758  0.009  0.257-  37 2.33  39 2.33  56 2.35  54 2.46
  36  0.497  0.255  0.256-   6 2.34   7 2.35  37 2.35  40 2.42
  37  0.629  0.132  0.137-  35 2.33  36 2.35  34 2.37  33 2.40
  38  0.871  0.385  0.131-  34 2.33  17 2.33  51 2.35   4 2.37
  39  0.886  0.130  0.380-   9 2.32   4 2.32  35 2.33  42 2.42
  40  0.628  0.385  0.381-  57 2.25  51 2.32  42 2.35  36 2.42
  41  0.506  0.009  0.500-  45 2.29   7 2.34  56 2.35  30 2.42
  42  0.756  0.261  0.503-  40 2.35  46 2.36  45 2.41  39 2.42
  43  0.748  0.999  0.761-  64 2.32  47 2.37  45 2.48  62 2.50
  44  0.506  0.258  0.748-  45 2.30  48 2.33  15 2.34  14 2.36
  45  0.623  0.132  0.624-  41 2.29  44 2.30  42 2.41  43 2.48
  46  0.887  0.378  0.630-  12 2.31  42 2.36  25 2.37  59 2.37
  47  0.873  0.132  0.878-  12 2.28  34 2.33  43 2.37   1 2.38
  48  0.628  0.377  0.877-  44 2.33  49 2.37  59 2.37  34 2.38
  49  0.501  0.497  0.008-   6 2.30  53 2.35  48 2.37  31 2.49
  50  0.756  0.755  1.000-  64 2.32  53 2.32  54 2.37  63 2.42
  51  0.750  0.509  0.258-  53 2.31  40 2.32  55 2.32  38 2.35
  52  0.514  0.755  0.251-  56 2.28  22 2.33  53 2.44  23 2.46
  53  0.637  0.623  0.119-  51 2.31  50 2.32  49 2.35  52 2.44
  54  0.886  0.875  0.127-  20 2.33   1 2.35  50 2.37  35 2.46
  55  0.878  0.626  0.384-  51 2.32  58 2.36  25 2.39  20 2.45
  56  0.627  0.883  0.373-  52 2.28  41 2.35  35 2.35  58 2.36
  57  0.508  0.500  0.504-  40 2.25  14 2.33  23 2.37  61 2.40
  58  0.747  0.753  0.501-  62 2.34  55 2.36  56 2.36  61 2.42
  59  0.755  0.502  0.752-  61 2.29  63 2.37  48 2.37  46 2.37
  60  0.500  0.753  0.752-  31 2.31  61 2.31  30 2.34  64 2.43
  61  0.628  0.627  0.640-  59 2.29  60 2.31  57 2.40  58 2.42
  62  0.881  0.871  0.622-  58 2.34  28 2.37   9 2.40  43 2.50
  63  0.886  0.626  0.874-  28 2.22  59 2.37  17 2.42  50 2.42
  64  0.624  0.879  0.888-  50 2.32  43 2.32  33 2.39  60 2.43
 
  LATTYP: Found a base centered monoclinic cell.
 ALAT       =    26.6309763354
 B/A-ratio  =     0.5771111317
 C/A-ratio  =     0.4083989658
 COS(beta)  =    -0.8162450482
  
  Lattice vectors:
  
 A1 = ( -10.8651379900, -10.8760607000,   0.0000000000)
 A2 = (  -0.0038391500, -10.8687072000,  10.8737898400)
 A3 = (  -0.0073651500,  10.8760607000,   0.0000000000)


Analysis of symmetry for initial positions (statically):
=====================================================================
 Subroutine PRICEL returns:
 Original cell was already a primitive cell.
 

 Routine SETGRP: Setting up the symmetry group for a 
 base centered monoclinic supercell.


 Subroutine GETGRP returns: Found  1 space group operations
 (whereof  1 operations were pure point group operations)
 out of a pool of  4 trial point group operations.


The static configuration has the point symmetry C_1 .


Analysis of symmetry for dynamics (positions and initial velocities):
=====================================================================
 Subroutine PRICEL returns:
 Original cell was already a primitive cell.
 

 Routine SETGRP: Setting up the symmetry group for a 
 base centered monoclinic supercell.


 Subroutine GETGRP returns: Found  1 space group operations
 (whereof  1 operations were pure point group operations)
 out of a pool of  4 trial point group operations.


The dynamic configuration has the point symmetry C_1 .


 Subroutine INISYM returns: Found  1 space group operations
 (whereof  1 operations are pure point group operations),
 and found     1 'primitive' translations


----------------------------------------------------------------------------------------

                                     Primitive cell                                     

  volume of cell :    1285.8257

  direct lattice vectors                    reciprocal lattice vectors
    10.872503140  0.000000000  0.000000000     0.091975140  0.000062285  0.000094729
    -0.007365150 10.876060700  0.000000000     0.000000000  0.091945055 -0.000062179
    -0.011204300  0.007353500 10.873789840     0.000000000  0.000000000  0.091964257

  length of vectors
    10.872503140 10.876063194 10.873798099     0.091975210  0.091945076  0.091964257

  position of ions in fractional coordinates (direct lattice)
     0.002992877  0.005988736  0.001824438
     0.261663569  0.251447757  0.003454264
     0.256306913  0.998788316  0.255471115
     0.000649953  0.252875534  0.247416145
     0.132324385  0.132652779  0.126455527
     0.374441221  0.380936565  0.131723836
     0.372860808  0.131358702  0.382599210
     0.133169744  0.376456835  0.375142042
     0.008272024  0.010523337  0.507938464
     0.252935839  0.259429301  0.504526919
     0.254453696  0.007969963  0.752760082
     0.997403638  0.253547316  0.761759152
     0.123702757  0.131677254  0.631496628
     0.376942927  0.386161989  0.629902526
     0.382032187  0.135584171  0.874129309
     0.135153934  0.380549579  0.880400098
     0.006482297  0.499957955  0.011175530
     0.252259725  0.748497877  0.005408840
     0.260935517  0.502599576  0.255322816
     0.009710476  0.759821958  0.259157271
     0.132716828  0.623241879  0.134877180
     0.376956528  0.869483672  0.131031560
     0.380370151  0.623111992  0.376320830
     0.136063133  0.880583816  0.381876940
     0.014564169  0.499225717  0.500492614
     0.257849578  0.753560299  0.504163638
     0.255212572  0.505449348  0.754538257
     0.000274842  0.747651183  0.755528984
     0.130088786  0.627314868  0.623356676
     0.377033681  0.879665090  0.628343576
     0.374316841  0.635699777  0.876682321
     0.127893067  0.875553922  0.882068937
     0.496964242  0.012374150  0.007444502
     0.754155605  0.254788991  0.007542884
     0.758422381  0.009476704  0.257408560
     0.497308071  0.254795764  0.256033195
     0.629431733  0.131504132  0.137147380
     0.871364105  0.384661330  0.130708321
     0.886186595  0.130378947  0.380120594
     0.627583120  0.385441026  0.380807800
     0.505623642  0.008843045  0.500100919
     0.755790488  0.261359733  0.503193641
     0.747916394  0.998541699  0.760665065
     0.505830962  0.257562911  0.747967609
     0.623271598  0.132078840  0.624398479
     0.887121810  0.378351767  0.629950280
     0.873175136  0.132059873  0.878365738
     0.627558953  0.377240989  0.877435667
     0.501167648  0.496954128  0.007737549
     0.756081024  0.755150114  0.999830792
     0.750211097  0.509325242  0.258442511
     0.513710796  0.755255147  0.250571342
     0.637448897  0.623207230  0.118966982
     0.885753251  0.874896424  0.127266101
     0.877986960  0.625947375  0.383734681
     0.626983171  0.882566894  0.373409598
     0.507958874  0.500276231  0.504036120
     0.747184423  0.753372711  0.500644922
     0.754925271  0.501513017  0.752118254
     0.499622253  0.753456370  0.752315275
     0.627783371  0.626599898  0.639714395
     0.880690957  0.871409075  0.622211325
     0.885781085  0.625928357  0.873530060
     0.624274799  0.879397963  0.887845206

  ion indices of the primitive-cell ions
   primitive index   ion index
                 1           1
                 2           2
                 3           3
                 4           4
                 5           5
                 6           6
                 7           7
                 8           8
                 9           9
                10          10
                11          11
                12          12
                13          13
                14          14
                15          15
                16          16
                17          17
                18          18
                19          19
                20          20
                21          21
                22          22
                23          23
                24          24
                25          25
                26          26
                27          27
                28          28
                29          29
                30          30
                31          31
                32          32
                33          33
                34          34
                35          35
                36          36
                37          37
                38          38
                39          39
                40          40
                41          41
                42          42
                43          43
                44          44
                45          45
                46          46
                47          47
                48          48
                49          49
                50          50
                51          51
                52          52
                53          53
                54          54
                55          55
                56          56
                57          57
                58          58
                59          59
                60          60
                61          61
                62          62
                63          63
                64          64

----------------------------------------------------------------------------------------

 
 
 KPOINTS: K-Points                                

Automatic generation of k-mesh.
 Grid dimensions read from file:
 generate k-points for:    2    2    2

 Generating k-lattice:

  Cartesian coordinates                     Fractional coordinates (reciprocal lattice)
     0.045987570  0.000031142  0.000047364     0.500000000 -0.000000000 -0.000000000
     0.000000000  0.045972528 -0.000031089     0.000000000  0.500000000  0.000000000
     0.000000000  0.000000000  0.045982128     0.000000000  0.000000000  0.500000000

  Length of vectors
     0.045987605  0.045972538  0.045982128

  Shift w.r.t. Gamma in fractional coordinates (k-lattice)
     0.500000000  0.500000000  0.500000000

 
 Subroutine IBZKPT returns following result:
 ===========================================
 
 Found      4 irreducible k-points:
 
 Following reciprocal coordinates:
            Coordinates               Weight
  0.250000  0.250000  0.250000      2.000000
  0.250000 -0.250000  0.250000      2.000000
 -0.250000  0.250000  0.250000      2.000000
 -0.250000 -0.250000  0.250000      2.000000
 
 Following cartesian coordinates:
            Coordinates               Weight
  0.022994  0.023002  0.022999      2.000000
  0.022994 -0.022971  0.023030      2.000000
 -0.022994  0.022971  0.022952      2.000000
 -0.022994 -0.023002  0.022983      2.000000
 


--------------------------------------------------------------------------------------------------------




 Dimension of arrays:
   k-points           NKPTS =      4   k-points in BZ     NKDIM =      4   number of bands    NBANDS=    161
   number of dos      NEDOS =    301   number of ions     NIONS =     64
   non local maximal  LDIM  =      4   non local SUM 2l+1 LMDIM =      8
   total plane-waves  NPLWV =  74088
   max r-space proj   IRMAX =    951   max aug-charges    IRDMAX=   2126
   dimension x,y,z NGX =    42 NGY =   42 NGZ =   42
   dimension x,y,z NGXF=    84 NGYF=   84 NGZF=   84
   support grid    NGXF=    84 NGYF=   84 NGZF=   84
   ions per type =              64
   NGX,Y,Z   is equivalent  to a cutoff of   6.42,  6.42,  6.42 a.u.
   NGXF,Y,Z  is equivalent  to a cutoff of  12.84, 12.84, 12.84 a.u.

 SYSTEM =  unknown system                          
 POSCAR =  Si                                      

 Startparameter for this run:
   NWRITE =      2    write-flag & timer
   PREC   = normal    normal or accurate (medium, high low for compatibility)
   ISTART =      1    job   : 0-new  1-cont  2-samecut
   ICHARG =      1    charge: 1-file 2-atom 10-const
   ISPIN  =      1    spin polarized calculation?
   LNONCOLLINEAR =      F non collinear calculations
   LSORBIT =      F    spin-orbit coupling
   INIWAV =      1    electr: 0-lowe 1-rand  2-diag
   LASPH  =      F    aspherical Exc in radial PAW
 Electronic Relaxation 1
   ENCUT  =  250.0 eV  18.37 Ry    4.29 a.u.  14.02 14.02 14.02*2*pi/ulx,y,z
   ENINI  =  250.0     initial cutoff
   ENAUG  =  322.1 eV  augmentation charge cutoff
   NELM   =     60;   NELMIN=  2; NELMDL=  0     # of ELM steps 
   EDIFF  = 0.1E-03   stopping-criterion for ELM
   LREAL  =      T    real-space projection
   NLSPLINE    = F    spline interpolate recip. space projectors
   LCOMPAT=      F    compatible to vasp.4.4
   GGA_COMPAT  = T    GGA compatible to vasp.4.4-vasp.4.6
   LMAXPAW     = -100 max onsite density
   LMAXMIX     =    2 max onsite mixed and CHGCAR
   VOSKOWN=      0    Vosko Wilk Nusair interpolation
   ROPT   =   -0.00050
 Ionic relaxation
   EDIFFG = 0.1E-02   stopping-criterion for IOM
   NSW    =      0    number of steps for IOM
   NBLOCK =      1;   KBLOCK =      1    inner block; outer block 
   IBRION =     -1    ionic relax: 0-MD 1-quasi-New 2-CG
   NFREE  =      0    steps in history (QN), initial steepest desc. (CG)
   ISIF   =      2    stress and relaxation
   IWAVPR =     10    prediction:  0-non 1-charg 2-wave 3-comb
   ISYM   =      2    0-nonsym 1-usesym 2-fastsym
   LCORR  =      T    Harris-Foulkes like correction to forces

   POTIM  = 0.5000    time-step for ionic-motion
   TEIN   =    0.0    initial temperature
   TEBEG  =    0.0;   TEEND  =   0.0 temperature during run
   SMASS  =  -3.00    Nose mass-parameter (am)
   estimated Nose-frequenzy (Omega)   =  0.10E-29 period in steps = 0.13E+47 mass=  -0.270E-26a.u.
   SCALEE = 1.0000    scale energy and forces
   NPACO  =    256;   APACO  = 10.0  distance and # of slots for P.C.
   PSTRESS=    0.0 pullay stress

  Mass of Ions in am
   POMASS =  28.09
  Ionic Valenz
   ZVAL   =   4.00
  Atomic Wigner-Seitz radii
   RWIGS  =  -1.00
  virtual crystal weights 
   VCA    =   1.00
   NELECT =     256.0000    total number of electrons
   NUPDOWN=      -1.0000    fix difference up-down

 DOS related values:
   EMIN   =  10.00;   EMAX   =-10.00  energy-range for DOS
   EFERMI =   0.00;   METHOD = LEGACY      
   ISMEAR =     0;   SIGMA  =   0.10  broadening in eV -4-tet -1-fermi 0-gaus

 Electronic relaxation 2 (details)
   IALGO  =     68    algorithm
   LDIAG  =      T    sub-space diagonalisation (order eigenvalues)
   LSUBROT=      F    optimize rotation matrix (better conditioning)
   TURBO    =      0    0=normal 1=particle mesh
   IRESTART =      0    0=no restart 2=restart with 2 vectors
   NREBOOT  =      0    no. of reboots
   NMIN     =      0    reboot dimension
   EREF     =   0.00    reference energy to select bands
   IMIX   =      4    mixing-type and parameters
     AMIX     =   0.40;   BMIX     =  1.00
     AMIX_MAG =   1.60;   BMIX_MAG =  1.00
     AMIN     =   0.10
     WC   =   100.;   INIMIX=   1;  MIXPRE=   1;  MAXMIX= -45

 Intra band minimization:
   WEIMIN = 0.0000     energy-eigenvalue tresh-hold
   EBREAK =  0.16E-06  absolut break condition
   DEPER  =   0.30     relativ break condition  

   TIME   =   0.40     timestep for ELM

  volume/ion in A,a.u.               =      20.09       135.58
  Fermi-wavevector in a.u.,A,eV,Ry     =   0.955933  1.806451 12.433111  0.913808
  Thomas-Fermi vector in A             =   2.084815
 
 Write flags
   LWAVE        =      T    write WAVECAR
   LDOWNSAMPLE  =      F    k-point downsampling of WAVECAR
   LCHARG       =      T    write CHGCAR
   LVTOT        =      F    write LOCPOT, total local potential
   LVHAR        =      F    write LOCPOT, Hartree potential only
   LELF         =      F    write electronic localiz. function (ELF)
   LORBIT       =      0    0 simple, 1 ext, 2 COOP (PROOUT), +10 PAW based schemes


 Dipole corrections
   LMONO  =      F    monopole corrections only (constant potential shift)
   LDIPOL =      F    correct potential (dipole corrections)
   IDIPOL =      0    1-x, 2-y, 3-z, 4-all directions 
   EPSILON=  1.0000000 bulk dielectric constant

 Exchange correlation treatment:
   GGA     =    --    GGA type
   LEXCH   =     8    internal setting for exchange type
   LIBXC   =     F    Libxc                    
   VOSKOWN =     0    Vosko Wilk Nusair interpolation
   LHFCALC =     F    Hartree Fock is set to
   LHFONE  =     F    Hartree Fock one center treatment
   AEXX    =    0.0000 exact exchange contribution

 Linear response parameters
   LEPSILON=     F    determine dielectric tensor
   LRPA    =     F    only Hartree local field effects (RPA)
   LNABLA  =     F    use nabla operator in PAW spheres
   LVEL    =     F    velocity operator in full k-point grid
   CSHIFT  =0.1000    complex shift for real part using Kramers Kronig
   OMEGAMAX=  -1.0    maximum frequency
   DEG_THRESHOLD= 0.2000000E-02 threshold for treating states as degnerate
   RTIME   =   -0.100 relaxation time in fs
  (WPLASMAI=    0.000 imaginary part of plasma frequency in eV, 0.658/RTIME)
   DFIELD  = 0.0000000 0.0000000 0.0000000 field for delta impulse in time
 
  Optional k-point grid parameters
   LKPOINTS_OPT  =     F    use optional k-point grid
   KPOINTS_OPT_MODE=     1    mode for optional k-point grid
 
 Orbital magnetization related:
   ORBITALMAG=     F  switch on orbital magnetization
   LCHIMAG   =     F  perturbation theory with respect to B field
   DQ        =  0.001000  dq finite difference perturbation B field
   LLRAUG    =     F  two centre corrections for induced B field
   LBONE     =     F  B-component reconstruction in AE one-centre
   LVGVCALC  =     T  calculate vGv susceptibility
   LVGVAPPL  =     F  apply vGv susceptibility instead of pGv for G=0

 Random number generation:
   RANDOM_GENERATOR = DEFAULT
   PCG_SEED         = not used


--------------------------------------------------------------------------------------------------------


 Static calculation
 charge density and potential will be updated during run
 non-spin polarized calculation
 RMM-DIIS sequential band-by-band and
  variant of blocked Davidson during initial phase
 perform sub-space diagonalisation
    before iterative eigenvector-optimisation
 modified Broyden-mixing scheme, WC =      100.0
 initial mixing is a Kerker type mixing with AMIX =  0.4000 and BMIX =      1.0000
 Hartree-type preconditioning will be used
 using additional bands           33
 real space projection scheme for non local part
 use partial core corrections
 calculate Harris-corrections to forces 
   (improved forces if not selfconsistent)
 use gradient corrections 
 use of overlap-Matrix (Vanderbilt PP)
 Gauss-broadening in eV      SIGMA  =   0.10


--------------------------------------------------------------------------------------------------------


  energy-cutoff  :      250.00
  volume of cell :     1285.83
      direct lattice vectors                 reciprocal lattice vectors
    10.872503140  0.000000000  0.000000000     0.091975140  0.000062285  0.000094729
    -0.007365150 10.876060700  0.000000000     0.000000000  0.091945055 -0.000062179
    -0.011204300  0.007353500 10.873789840     0.000000000  0.000000000  0.091964257

  length of vectors
    10.872503140 10.876063194 10.873798099     0.091975210  0.091945076  0.091964257


 
 old parameters found on file WAVECAR:
  energy-cutoff  :      250.00
  volume of cell :     1285.92
      direct lattice vectors                 reciprocal lattice vectors
    10.872864540  0.000000000  0.000000000     0.091972083  0.000065997  0.000097050
    -0.007804540 10.876230880  0.000000000     0.000000000  0.091943616 -0.000061897
    -0.011479650  0.007320490 10.874059250     0.000000000  0.000000000  0.091961978

  length of vectors

 
 k-points in units of 2pi/SCALE and weight: K-Points                                
   0.02299379  0.02300183  0.02299920       0.250
   0.02299379 -0.02297069  0.02303029       0.250
  -0.02299379  0.02297069  0.02295184       0.250
  -0.02299379 -0.02300183  0.02298293       0.250
 
 k-points in reciprocal lattice and weights: K-Points                                
   0.25000000  0.25000000  0.25000000       0.250
   0.25000000 -0.25000000  0.25000000       0.250
  -0.25000000  0.25000000  0.25000000       0.250
  -0.25000000 -0.25000000  0.25000000       0.250
 
 position of ions in fractional coordinates (direct lattice) 
   0.00299288  0.00598874  0.00182444
   0.26166357  0.25144776  0.00345426
   0.25630691  0.99878832  0.25547112
   0.00064995  0.25287553  0.24741614
   0.13232439  0.13265278  0.12645553
   0.37444122  0.38093656  0.13172384
   0.37286081  0.13135870  0.38259921
   0.13316974  0.37645683  0.37514204
   0.00827202  0.01052334  0.50793846
   0.25293584  0.25942930  0.50452692
   0.25445370  0.00796996  0.75276008
   0.99740364  0.25354732  0.76175915
   0.12370276  0.13167725  0.63149663
   0.37694293  0.38616199  0.62990253
   0.38203219  0.13558417  0.87412931
   0.13515393  0.38054958  0.88040010
   0.00648230  0.49995796  0.01117553
   0.25225972  0.74849788  0.00540884
   0.26093552  0.50259958  0.25532282
   0.00971048  0.75982196  0.25915727
   0.13271683  0.62324188  0.13487718
   0.37695653  0.86948367  0.13103156
   0.38037015  0.62311199  0.37632083
   0.13606313  0.88058382  0.38187694
   0.01456417  0.49922572  0.50049261
   0.25784958  0.75356030  0.50416364
   0.25521257  0.50544935  0.75453826
   0.00027484  0.74765118  0.75552898
   0.13008879  0.62731487  0.62335668
   0.37703368  0.87966509  0.62834358
   0.37431684  0.63569978  0.87668232
   0.12789307  0.87555392  0.88206894
   0.49696424  0.01237415  0.00744450
   0.75415560  0.25478899  0.00754288
   0.75842238  0.00947670  0.25740856
   0.49730807  0.25479576  0.25603319
   0.62943173  0.13150413  0.13714738
   0.87136410  0.38466133  0.13070832
   0.88618659  0.13037895  0.38012059
   0.62758312  0.38544103  0.38080780
   0.50562364  0.00884305  0.50010092
   0.75579049  0.26135973  0.50319364
   0.74791639  0.99854170  0.76066507
   0.50583096  0.25756291  0.74796761
   0.62327160  0.13207884  0.62439848
   0.88712181  0.37835177  0.62995028
   0.87317514  0.13205987  0.87836574
   0.62755895  0.37724099  0.87743567
   0.50116765  0.49695413  0.00773755
   0.75608102  0.75515011  0.99983079
   0.75021110  0.50932524  0.25844251
   0.51371080  0.75525515  0.25057134
   0.63744890  0.62320723  0.11896698
   0.88575325  0.87489642  0.12726610
   0.87798696  0.62594738  0.38373468
   0.62698317  0.88256689  0.37340960
   0.50795887  0.50027623  0.50403612
   0.74718442  0.75337271  0.50064492
   0.75492527  0.50151302  0.75211825
   0.49962225  0.75345637  0.75231527
   0.62778337  0.62659990  0.63971440
   0.88069096  0.87140908  0.62221132
   0.88578109  0.62592836  0.87353006
   0.62427480  0.87939796  0.88784521
 
 position of ions in cartesian coordinates  (Angst):
   0.03247552  0.06514727  0.01983855
   2.84304732  2.73478647  0.03756094
   2.77647912 10.86476096  2.77793922
   0.00243202  2.75210903  2.69035116
   1.43630344  1.44366957  1.37505083
   4.06683182  4.14405783  1.43233731
   4.04867607  1.43147866  4.16030340
   1.44091260  4.09712599  4.07921573
   0.08416901  0.11818758  5.52321611
   2.74248210  2.82527886  5.48611969
   2.75805576  0.09221722  8.18535493
  10.83387179  2.76319759  8.28320893
   1.33691331  1.43677352  6.86676162
   4.08841140  4.20455322  6.84942769
   4.14285355  1.48104958  9.50509840
   1.45679450  4.14535434  9.57328564
   0.06667131  5.43765525  0.12152037
   2.73712125  8.14074812  0.05881459
   2.83045979  5.46818101  2.77632664
   0.09707730  8.26577545  2.81802170
   1.43686266  6.77940833  1.46662611
   4.09058904  9.45752073  1.42480965
   4.12676994  6.77977112  4.09203362
   1.46858254  9.58009117  4.15244959
   0.14906443  5.43328957  5.44225150
   2.79227146  8.19947492  5.48216945
   2.76262271  5.50284629  8.20469043
  -0.01098352  8.13705543  8.21546339
   1.40278619  6.82729844  6.77824949
   4.08578087  9.57191144  6.83247599
   4.05525639  6.92035604  9.53285932
   1.37418622  9.52906390  9.59143224
   5.40307073  0.13463675  0.08094995
   8.19759811  2.77115600  0.08201974
   8.24299584  0.10496206  2.79900658
   5.40223828  2.77305694  2.78405115
   6.84099331  1.43125543  1.49131179
   9.46961138  4.18456114  1.42129481
   9.62984729  1.42080456  4.13335145
   6.81629393  4.19488027  4.14082399
   5.49172622  0.09985499  5.43799229
   8.20977157  2.84626456  5.47162190
   8.11584621 10.86579368  8.27131206
   5.48937128  2.80677003  8.13324259
   6.76855368  1.44108899  6.78957784
   9.63538989  4.11960912  6.84994695
   9.48278529  1.44275026  9.55116444
   6.81052720  4.10934812  9.54105104
   5.44519999  5.40496016  0.08413648
   8.20372911  8.22041073 10.87194991
   8.15002558  5.54135270  2.81024955
   5.57695220  8.21604340  2.72466011
   6.92474218  6.77891449  1.29362196
   9.62248533  9.51636247  1.38386484
   9.53700630  6.81066344  4.17265028
   6.80619247  9.60159698  4.06037749
   5.51345247  5.44474108  5.48078284
   8.11260691  8.19740883  5.44390767
   8.19580670  5.46001672  8.17837583
   5.41816603  8.20016936  8.18051819
   6.81379412  6.81964266  6.95611989
   9.56192569  9.48207343  6.76579518
   9.61626028  6.81405831  9.49858229
   6.77100513  9.57091440  9.65424218
 


--------------------------------------------------------------------------------------------------------


 k-point   1 :   0.2500 0.2500 0.2500  plane waves:   11545
 k-point   2 :   0.2500-0.2500 0.2500  plane waves:   11545
 k-point   3 :  -0.2500 0.2500 0.2500  plane waves:   11552
 k-point   4 :  -0.2500-0.2500 0.2500  plane waves:   11544

 maximum and minimum number of plane-waves per node :       429      401

 maximum number of plane-waves:     11552
 maximum index in each direction: 
   IXMAX=   14   IYMAX=   14   IZMAX=   13
   IXMIN=  -14   IYMIN=  -14   IZMIN=  -14


 real space projection operators:
  total allocation   :       3494.62 KBytes
  max/ min on nodes  :        172.75         78.38


 parallel 3D FFT for wavefunctions:
    minimum data exchange during FFTs selected (reduces bandwidth)
 parallel 3D FFT for charge:
    minimum data exchange during FFTs selected (reduces bandwidth)


 total amount of memory used by VASP MPI-rank0    37774. kBytes
=======================================================================

   base      :      30000. kBytes
   nonlr-proj:       1206. kBytes
   fftplans  :        841. kBytes
   grid      :       1174. kBytes
   one-center:          9. kBytes
   wavefun   :       4544. kBytes
 
     INWAV:  cpu time     19.0077: real time     19.0494
 Broyden mixing: mesh for mixing (old mesh)
   NGX = 29   NGY = 29   NGZ = 29
  (NGX  = 84   NGY  = 84   NGZ  = 84)
  gives a total of  24389 points

 initial charge density was supplied:
 number of electron     255.9999961 magnetization 
 keeping initial charge density in first step


--------------------------------------------------------------------------------------------------------


 Maximum index for non-local projection operator          114
 Maximum index for augmentation-charges          186 (set IRDMAX)


--------------------------------------------------------------------------------------------------------


 First call to EWALD:  gamma=   0.163
 Maximum number of real-space cells 3x 3x 3
 Maximum number of reciprocal cells 3x 3x 3

    FEWALD:  cpu time      0.0394: real time      0.0395


--------------------------------------- Ionic step        1  -------------------------------------------




--------------------------------------- Iteration      1(   1)  ---------------------------------------


    POTLOK:  cpu time      0.6110: real time      1.6203
    SETDIJ:  cpu time      0.0235: real time      0.0236
     EDDAV:  cpu time     43.8737: real time     43.9707
       DOS:  cpu time      0.0154: real time      0.0154
    CHARGE:  cpu time      2.2891: real time      2.2941
    MIXING:  cpu time      0.0384: real time      0.0385
    --------------------------------------------
      LOOP:  cpu time     46.8511: real time     47.9625

 eigenvalue-minimisations  :  1392
 total energy-change (2. order) :-0.3445937E+03  (-0.7432022E-01)
 number of electron     255.9999956 magnetization 
 augmentation part      -14.6544135 magnetization 

 Broyden mixing:
  rms(total) = 0.46309E-01    rms(broyden)= 0.46306E-01
  rms(prec ) = 0.49039E-01
  weight for this iteration     100.00

 Free energy of the ion-electron system (eV)
  ---------------------------------------------------
  alpha Z        PSCENC =       107.23396217
  Ewald energy   TEWEN  =     -7298.95919140
  -Hartree energ DENC   =      -482.19852030
  -exchange      EXHF   =         0.00000000
  -V(xc)+E(xc)   XCENC  =      -575.17023068
  PAW double counting   =     32170.16410358   -31051.48960799
  entropy T*S    EENTRO =        -0.00000000
  eigenvalues    EBANDS =       189.87383890
  atomic energy  EATOM  =      6595.95197522
  Solvation  Ediel_sol  =         0.00000000
  ---------------------------------------------------
  free energy    TOTEN  =      -344.59367049 eV

  energy without entropy =     -344.59367049  energy(sigma->0) =     -344.59367049


--------------------------------------------------------------------------------------------------------




--------------------------------------- Iteration      1(   2)  ---------------------------------------


    POTLOK:  cpu time      0.2836: real time      0.2845
    SETDIJ:  cpu time      0.1229: real time      0.1232
    EDDIAG:  cpu time      6.8593: real time      6.8745
  RMM-DIIS:  cpu time     24.3510: real time     24.4048
    ORTHCH:  cpu time      0.4788: real time      0.4799
       DOS:  cpu time      0.1535: real time      0.1539
    CHARGE:  cpu time      2.7968: real time      2.8029
    MIXING:  cpu time      0.0004: real time      0.0004
    --------------------------------------------
      LOOP:  cpu time     35.0463: real time     35.1241

 eigenvalue-minimisations  :  1305
 total energy-change (2. order) :-0.3407542E-02  (-0.3899621E-02)
 number of electron     255.9999956 magnetization 
 augmentation part      -14.6545554 magnetization 

 Broyden mixing:
  rms(total) = 0.17010E-01    rms(broyden)= 0.17009E-01
  rms(prec ) = 0.20289E-01
  weight for this iteration     100.00

 eigenvalues of (default mixing * dielectric matrix)
  average eigenvalue GAMMA=   1.3279
  1.3279

 Free energy of the ion-electron system (eV)
  ---------------------------------------------------
  alpha Z        PSCENC =       107.23396217
  Ewald energy   TEWEN  =     -7298.95919140
  -Hartree energ DENC   =      -482.18263376
  -exchange      EXHF   =         0.00000000
  -V(xc)+E(xc)   XCENC  =      -575.16936166
  PAW double counting   =     32180.84676055   -31062.17525667
  entropy T*S    EENTRO =        -0.00000000
  eigenvalues    EBANDS =       189.85666751
  atomic energy  EATOM  =      6595.95197522
  Solvation  Ediel_sol  =         0.00000000
  ---------------------------------------------------
  free energy    TOTEN  =      -344.59707803 eV

  energy without entropy =     -344.59707803  energy(sigma->0) =     -344.59707803


--------------------------------------------------------------------------------------------------------




--------------------------------------- Iteration      1(   3)  ---------------------------------------


    POTLOK:  cpu time      0.0540: real time      0.0553
    SETDIJ:  cpu time      0.0681: real time      0.0683
    EDDIAG:  cpu time      5.6696: real time      5.6824
  RMM-DIIS:  cpu time     23.8571: real time     23.9102
    ORTHCH:  cpu time      0.2053: real time      0.2057
       DOS:  cpu time      0.0746: real time      0.0748
    CHARGE:  cpu time      1.2823: real time      1.2851
    MIXING:  cpu time      0.0003: real time      0.0003
    --------------------------------------------
      LOOP:  cpu time     31.2113: real time     31.2822

 eigenvalue-minimisations  :  1506
 total energy-change (2. order) :-0.3469300E-03  (-0.6277262E-03)
 number of electron     255.9999956 magnetization 
 augmentation part      -14.6545765 magnetization 

 Broyden mixing:
  rms(total) = 0.78955E-02    rms(broyden)= 0.78949E-02
  rms(prec ) = 0.93867E-02
  weight for this iteration     100.00

 eigenvalues of (default mixing * dielectric matrix)
  average eigenvalue GAMMA=   1.6740
  1.6740  1.6740

 Free energy of the ion-electron system (eV)
  ---------------------------------------------------
  alpha Z        PSCENC =       107.23396217
  Ewald energy   TEWEN  =     -7298.95919140
  -Hartree energ DENC   =      -482.18047741
  -exchange      EXHF   =         0.00000000
  -V(xc)+E(xc)   XCENC  =      -575.16773974
  PAW double counting   =     32186.98148074   -31068.31282423
  entropy T*S    EENTRO =        -0.00000000
  eigenvalues    EBANDS =       189.85538969
  atomic energy  EATOM  =      6595.95197522
  Solvation  Ediel_sol  =         0.00000000
  ---------------------------------------------------
  free energy    TOTEN  =      -344.59742496 eV

  energy without entropy =     -344.59742496  energy(sigma->0) =     -344.59742496


--------------------------------------------------------------------------------------------------------




--------------------------------------- Iteration      1(   4)  ---------------------------------------


    POTLOK:  cpu time      0.4187: real time      0.4196
    SETDIJ:  cpu time      0.1136: real time      0.1138
    EDDIAG:  cpu time      6.9191: real time      6.9344
  RMM-DIIS:  cpu time     22.0476: real time     22.0970
    ORTHCH:  cpu time      0.2097: real time      0.2102
       DOS:  cpu time      0.0014: real time      0.0014
    CHARGE:  cpu time      4.7555: real time      4.7664
    MIXING:  cpu time      0.0003: real time      0.0003
    --------------------------------------------
      LOOP:  cpu time     34.4659: real time     34.5431

 eigenvalue-minimisations  :  1565
 total energy-change (2. order) :-0.6859866E-04  (-0.1183437E-03)
 number of electron     255.9999956 magnetization 
 augmentation part      -14.6546119 magnetization 

 Broyden mixing:
  rms(total) = 0.37143E-02    rms(broyden)= 0.37141E-02
  rms(prec ) = 0.41312E-02
  weight for this iteration     100.00

 eigenvalues of (default mixing * dielectric matrix)
  average eigenvalue GAMMA=   1.7679
  1.0224  2.4480  1.8332

 Free energy of the ion-electron system (eV)
  ---------------------------------------------------
  alpha Z        PSCENC =       107.23396217
  Ewald energy   TEWEN  =     -7298.95919140
  -Hartree energ DENC   =      -482.18087876
  -exchange      EXHF   =         0.00000000
  -V(xc)+E(xc)   XCENC  =      -575.16652390
  PAW double counting   =     32188.49282721   -31069.82592941
  entropy T*S    EENTRO =        -0.00000000
  eigenvalues    EBANDS =       189.85626530
  atomic energy  EATOM  =      6595.95197522
  Solvation  Ediel_sol  =         0.00000000
  ---------------------------------------------------
  free energy    TOTEN  =      -344.59749356 eV

  energy without entropy =     -344.59749356  energy(sigma->0) =     -344.59749356


--------------------------------------------------------------------------------------------------------




--------------------------------------- Iteration      1(   5)  ---------------------------------------


    POTLOK:  cpu time      0.0455: real time      0.0464
    SETDIJ:  cpu time      0.0019: real time      0.0019
    EDDIAG:  cpu time      4.4999: real time      4.5103
  RMM-DIIS:  cpu time     17.8846: real time     19.2497
    ORTHCH:  cpu time      0.3742: real time      0.3750
       DOS:  cpu time      0.1327: real time      0.1330
    --------------------------------------------
      LOOP:  cpu time     22.9388: real time     24.3164

 eigenvalue-minimisations  :  1017
 total energy-change (2. order) :-0.1719308E-04  (-0.2105967E-04)
 number of electron     255.9999956 magnetization 
 augmentation part      -14.6546119 magnetization 

 Free energy of the ion-electron system (eV)
  ---------------------------------------------------
  alpha Z        PSCENC =       107.23396217
  Ewald energy   TEWEN  =     -7298.95919140
  -Hartree energ DENC   =      -482.18145110
  -exchange      EXHF   =         0.00000000
  -V(xc)+E(xc)   XCENC  =      -575.16594254
  PAW double counting   =     32188.03501077   -31069.36890199
  entropy T*S    EENTRO =        -0.00000000
  eigenvalues    EBANDS =       189.85702812
  atomic energy  EATOM  =      6595.95197522
  Solvation  Ediel_sol  =         0.00000000
  ---------------------------------------------------
  free energy    TOTEN  =      -344.59751075 eV

  energy without entropy =     -344.59751075  energy(sigma->0) =     -344.59751075


--------------------------------------------------------------------------------------------------------




 average (electrostatic) potential at core
  the test charge radii are     0.9892
  (the norm of the test charge is              1.0000)
       1 -83.2281       2 -83.3065       3 -83.2684       4 -83.3286       5 -83.3206
       6 -83.2971       7 -83.2760       8 -83.2928       9 -83.2977      10 -83.3259
      11 -83.3669      12 -83.3003      13 -83.3001      14 -83.2869      15 -83.3207
      16 -83.3528      17 -83.3453      18 -83.2713      19 -83.2917      20 -83.3305
      21 -83.2970      22 -83.2826      23 -83.3520      24 -83.2406      25 -83.3155
      26 -83.3150      27 -83.2870      28 -83.2530      29 -83.2460      30 -83.3312
      31 -83.2831      32 -83.3110      33 -83.3099      34 -83.2743      35 -83.2920
      36 -83.3027      37 -83.3161      38 -83.3065      39 -83.2962      40 -83.2891
      41 -83.2760      42 -83.3147      43 -83.2871      44 -83.2587      45 -83.2800
      46 -83.3000      47 -83.2658      48 -83.3126      49 -83.3661      50 -83.2993
      51 -83.2762      52 -83.3090      53 -83.2967      54 -83.3079      55 -83.3257
      56 -83.3109      57 -83.2560      58 -83.3030      59 -83.3100      60 -83.3123
      61 -83.3240      62 -83.3119      63 -83.2584      64 -83.2655
 
 
 
 E-fermi :   6.0753     XC(G=0):  -9.3980     alpha+bet :-11.9379

 Fermi energy:         6.0752614048

 k-point     1 :       0.2500    0.2500    0.2500
  band No.  band energies     occupation 
      1      -5.9676      2.00000
      2      -5.4382      2.00000
      3      -5.4265      2.00000
      4      -5.4142      2.00000
      5      -4.9302      2.00000
      6      -4.9189      2.00000
      7      -4.9014      2.00000
      8      -4.4737      2.00000
      9      -4.4018      2.00000
     10      -4.3760      2.00000
     11      -4.3585      2.00000
     12      -3.9981      2.00000
     13      -3.9736      2.00000
     14      -3.9682      2.00000
     15      -3.9483      2.00000
     16      -3.9319      2.00000
     17      -3.8962      2.00000
     18      -3.7665      2.00000
     19      -3.7209      2.00000
     20      -3.6958      2.00000
     21      -3.2631      2.00000
     22      -3.2378      2.00000
     23      -3.1832      2.00000
     24      -2.9257      2.00000
     25      -2.8964      2.00000
     26      -2.8501      2.00000
     27      -2.7321      2.00000
     28      -2.7071      2.00000
     29      -2.6876      2.00000
     30      -2.6679      2.00000
     31      -2.6396      2.00000
     32      -2.6129      2.00000
     33      -1.2195      2.00000
     34      -1.1842      2.00000
     35      -1.1700      2.00000
     36      -1.1512      2.00000
     37      -1.1288      2.00000
     38      -1.1014      2.00000
     39      -1.0559      2.00000
     40      -1.0308      2.00000
     41      -0.9970      2.00000
     42      -0.9565      2.00000
     43      -0.9311      2.00000
     44      -0.8920      2.00000
     45      -0.8588      2.00000
     46      -0.8249      2.00000
     47      -0.7582      2.00000
     48      -0.1724      2.00000
     49      -0.0778      2.00000
     50      -0.0545      2.00000
     51      -0.0290      2.00000
     52      -0.0109      2.00000
     53       0.0099      2.00000
     54       0.0284      2.00000
     55       0.7910      2.00000
     56       0.8363      2.00000
     57       0.9143      2.00000
     58       1.1468      2.00000
     59       1.1634      2.00000
     60       1.1922      2.00000
     61       1.7047      2.00000
     62       1.7165      2.00000
     63       1.7271      2.00000
     64       1.7389      2.00000
     65       1.7546      2.00000
     66       1.7736      2.00000
     67       1.8047      2.00000
     68       1.8333      2.00000
     69       1.8724      2.00000
     70       2.3109      2.00000
     71       2.3432      2.00000
     72       2.3679      2.00000
     73       2.4257      2.00000
     74       2.4405      2.00000
     75       2.4629      2.00000
     76       2.4705      2.00000
     77       2.4977      2.00000
     78       2.5144      2.00000
     79       2.5717      2.00000
     80       2.6116      2.00000
     81       2.6398      2.00000
     82       2.8259      2.00000
     83       2.8373      2.00000
     84       2.8400      2.00000
     85       2.8536      2.00000
     86       2.8621      2.00000
     87       2.8906      2.00000
     88       3.0650      2.00000
     89       3.0953      2.00000
     90       3.1179      2.00000
     91       3.1575      2.00000
     92       3.1846      2.00000
     93       3.2176      2.00000
     94       3.4363      2.00000
     95       3.4499      2.00000
     96       3.4804      2.00000
     97       3.4978      2.00000
     98       3.5302      2.00000
     99       3.5533      2.00000
    100       3.5955      2.00000
    101       3.6141      2.00000
    102       3.6362      2.00000
    103       3.8112      2.00000
    104       3.8358      2.00000
    105       3.8573      2.00000
    106       3.8662      2.00000
    107       3.8913      2.00000
    108       3.8989      2.00000
    109       3.9195      2.00000
    110       3.9401      2.00000
    111       3.9749      2.00000
    112       4.1785      2.00000
    113       4.2489      2.00000
    114       4.2794      2.00000
    115       4.3412      2.00000
    116       4.4718      2.00000
    117       4.4847      2.00000
    118       4.5056      2.00000
    119       4.5307      2.00000
    120       4.5691      2.00000
    121       4.6185      2.00000
    122       4.7153      2.00000
    123       4.7371      2.00000
    124       5.0535      2.00000
    125       5.0847      2.00000
    126       5.1178      2.00000
    127       5.5404      2.00000
    128       5.5686      2.00000
    129       6.6704      0.00000
    130       6.6880      0.00000
    131       6.7011      0.00000
    132       7.0958      0.00000
    133       7.1455      0.00000
    134       7.1631      0.00000
    135       7.4218      0.00000
    136       7.5849      0.00000
    137       7.6369      0.00000
    138       7.6477      0.00000
    139       7.7227      0.00000
    140       7.7340      0.00000
    141       7.7757      0.00000
    142       7.8926      0.00000
    143       7.9278      0.00000
    144       7.9519      0.00000
    145       7.9550      0.00000
    146       7.9754      0.00000
    147       8.0026      0.00000
    148       8.1291      0.00000
    149       8.1492      0.00000
    150       8.1660      0.00000
    151       8.1922      0.00000
    152       8.1967      0.00000
    153       8.2025      0.00000
    154       8.2771      0.00000
    155       8.4617      0.00000
    156       8.4983      0.00000
    157       8.5100      0.00000
    158       8.5622      0.00000
    159       8.6099      0.00000
    160       8.6448      0.00000
    161       8.6531      0.00000

 k-point     2 :       0.2500   -0.2500    0.2500
  band No.  band energies     occupation 
      1      -5.9681      2.00000
      2      -5.4380      2.00000
      3      -5.4267      2.00000
      4      -5.4108      2.00000
      5      -4.9308      2.00000
      6      -4.9189      2.00000
      7      -4.9051      2.00000
      8      -4.4808      2.00000
      9      -4.4052      2.00000
     10      -4.3765      2.00000
     11      -4.3553      2.00000
     12      -3.9926      2.00000
     13      -3.9745      2.00000
     14      -3.9586      2.00000
     15      -3.9441      2.00000
     16      -3.9388      2.00000
     17      -3.8838      2.00000
     18      -3.7632      2.00000
     19      -3.7387      2.00000
     20      -3.6830      2.00000
     21      -3.2642      2.00000
     22      -3.2380      2.00000
     23      -3.2121      2.00000
     24      -2.9099      2.00000
     25      -2.8971      2.00000
     26      -2.8564      2.00000
     27      -2.7324      2.00000
     28      -2.7111      2.00000
     29      -2.6924      2.00000
     30      -2.6500      2.00000
     31      -2.6446      2.00000
     32      -2.6038      2.00000
     33      -1.2254      2.00000
     34      -1.2107      2.00000
     35      -1.1918      2.00000
     36      -1.1614      2.00000
     37      -1.1437      2.00000
     38      -1.1146      2.00000
     39      -1.0588      2.00000
     40      -1.0273      2.00000
     41      -0.9718      2.00000
     42      -0.9435      2.00000
     43      -0.8999      2.00000
     44      -0.8848      2.00000
     45      -0.8464      2.00000
     46      -0.7923      2.00000
     47      -0.7646      2.00000
     48      -0.1630      2.00000
     49      -0.1113      2.00000
     50      -0.0568      2.00000
     51      -0.0358      2.00000
     52      -0.0110      2.00000
     53       0.0030      2.00000
     54       0.0280      2.00000
     55       0.8157      2.00000
     56       0.8563      2.00000
     57       0.9015      2.00000
     58       1.1514      2.00000
     59       1.1692      2.00000
     60       1.1864      2.00000
     61       1.7051      2.00000
     62       1.7236      2.00000
     63       1.7285      2.00000
     64       1.7371      2.00000
     65       1.7478      2.00000
     66       1.7603      2.00000
     67       1.8055      2.00000
     68       1.8228      2.00000
     69       1.8581      2.00000
     70       2.3313      2.00000
     71       2.3529      2.00000
     72       2.3803      2.00000
     73       2.4114      2.00000
     74       2.4380      2.00000
     75       2.4539      2.00000
     76       2.4681      2.00000
     77       2.4856      2.00000
     78       2.5032      2.00000
     79       2.5726      2.00000
     80       2.5905      2.00000
     81       2.6153      2.00000
     82       2.8191      2.00000
     83       2.8354      2.00000
     84       2.8399      2.00000
     85       2.8671      2.00000
     86       2.8789      2.00000
     87       2.8956      2.00000
     88       3.0591      2.00000
     89       3.1011      2.00000
     90       3.1237      2.00000
     91       3.1441      2.00000
     92       3.1523      2.00000
     93       3.1900      2.00000
     94       3.4401      2.00000
     95       3.4746      2.00000
     96       3.5037      2.00000
     97       3.5198      2.00000
     98       3.5474      2.00000
     99       3.5826      2.00000
    100       3.5933      2.00000
    101       3.6108      2.00000
    102       3.6478      2.00000
    103       3.8293      2.00000
    104       3.8407      2.00000
    105       3.8696      2.00000
    106       3.8833      2.00000
    107       3.8889      2.00000
    108       3.9089      2.00000
    109       3.9214      2.00000
    110       3.9367      2.00000
    111       3.9715      2.00000
    112       4.1937      2.00000
    113       4.2439      2.00000
    114       4.2596      2.00000
    115       4.3030      2.00000
    116       4.4662      2.00000
    117       4.4791      2.00000
    118       4.5170      2.00000
    119       4.5564      2.00000
    120       4.6062      2.00000
    121       4.6309      2.00000
    122       4.7086      2.00000
    123       4.7260      2.00000
    124       5.0176      2.00000
    125       5.0548      2.00000
    126       5.1164      2.00000
    127       5.5189      2.00000
    128       5.5607      2.00000
    129       6.6658      0.00000
    130       6.6709      0.00000
    131       6.6766      0.00000
    132       7.0933      0.00000
    133       7.1502      0.00000
    134       7.1850      0.00000
    135       7.4047      0.00000
    136       7.5831      0.00000
    137       7.6157      0.00000
    138       7.6320      0.00000
    139       7.7380      0.00000
    140       7.7489      0.00000
    141       7.7744      0.00000
    142       7.8967      0.00000
    143       7.9226      0.00000
    144       7.9456      0.00000
    145       7.9541      0.00000
    146       7.9751      0.00000
    147       8.0118      0.00000
    148       8.1383      0.00000
    149       8.1531      0.00000
    150       8.1750      0.00000
    151       8.1844      0.00000
    152       8.2007      0.00000
    153       8.2158      0.00000
    154       8.2763      0.00000
    155       8.4631      0.00000
    156       8.4736      0.00000
    157       8.5114      0.00000
    158       8.5466      0.00000
    159       8.6267      0.00000
    160       8.6522      0.00000
    161       8.6755      0.00000

 k-point     3 :      -0.2500    0.2500    0.2500
  band No.  band energies     occupation 
      1      -5.9680      2.00000
      2      -5.4424      2.00000
      3      -5.4221      2.00000
      4      -5.4141      2.00000
      5      -4.9236      2.00000
      6      -4.9150      2.00000
      7      -4.9000      2.00000
      8      -4.4800      2.00000
      9      -4.4134      2.00000
     10      -4.3775      2.00000
     11      -4.3731      2.00000
     12      -4.0425      2.00000
     13      -3.9962      2.00000
     14      -3.9546      2.00000
     15      -3.9338      2.00000
     16      -3.9164      2.00000
     17      -3.8957      2.00000
     18      -3.7341      2.00000
     19      -3.6826      2.00000
     20      -3.6482      2.00000
     21      -3.2892      2.00000
     22      -3.2579      2.00000
     23      -3.2196      2.00000
     24      -2.9671      2.00000
     25      -2.9086      2.00000
     26      -2.8436      2.00000
     27      -2.7195      2.00000
     28      -2.7019      2.00000
     29      -2.6796      2.00000
     30      -2.6630      2.00000
     31      -2.6343      2.00000
     32      -2.5855      2.00000
     33      -1.2469      2.00000
     34      -1.2004      2.00000
     35      -1.1737      2.00000
     36      -1.1454      2.00000
     37      -1.1262      2.00000
     38      -1.1052      2.00000
     39      -1.0791      2.00000
     40      -1.0321      2.00000
     41      -1.0000      2.00000
     42      -0.9428      2.00000
     43      -0.8993      2.00000
     44      -0.8830      2.00000
     45      -0.8547      2.00000
     46      -0.8039      2.00000
     47      -0.7528      2.00000
     48      -0.1524      2.00000
     49      -0.1204      2.00000
     50      -0.0640      2.00000
     51      -0.0543      2.00000
     52      -0.0150      2.00000
     53      -0.0050      2.00000
     54       0.0540      2.00000
     55       0.8085      2.00000
     56       0.8810      2.00000
     57       0.9067      2.00000
     58       1.1486      2.00000
     59       1.1826      2.00000
     60       1.1958      2.00000
     61       1.6951      2.00000
     62       1.7200      2.00000
     63       1.7348      2.00000
     64       1.7474      2.00000
     65       1.7556      2.00000
     66       1.7707      2.00000
     67       1.8011      2.00000
     68       1.8205      2.00000
     69       1.8572      2.00000
     70       2.3144      2.00000
     71       2.3440      2.00000
     72       2.3737      2.00000
     73       2.4077      2.00000
     74       2.4458      2.00000
     75       2.4498      2.00000
     76       2.4802      2.00000
     77       2.4901      2.00000
     78       2.5172      2.00000
     79       2.5636      2.00000
     80       2.5967      2.00000
     81       2.6310      2.00000
     82       2.8065      2.00000
     83       2.8269      2.00000
     84       2.8336      2.00000
     85       2.8476      2.00000
     86       2.8685      2.00000
     87       2.8895      2.00000
     88       3.0721      2.00000
     89       3.1036      2.00000
     90       3.1118      2.00000
     91       3.1347      2.00000
     92       3.1475      2.00000
     93       3.1789      2.00000
     94       3.4241      2.00000
     95       3.4521      2.00000
     96       3.4797      2.00000
     97       3.5027      2.00000
     98       3.5286      2.00000
     99       3.5596      2.00000
    100       3.6060      2.00000
    101       3.6102      2.00000
    102       3.6384      2.00000
    103       3.8311      2.00000
    104       3.8515      2.00000
    105       3.8646      2.00000
    106       3.8924      2.00000
    107       3.9217      2.00000
    108       3.9331      2.00000
    109       3.9457      2.00000
    110       3.9600      2.00000
    111       3.9902      2.00000
    112       4.1802      2.00000
    113       4.2447      2.00000
    114       4.2656      2.00000
    115       4.2873      2.00000
    116       4.4583      2.00000
    117       4.5028      2.00000
    118       4.5312      2.00000
    119       4.5547      2.00000
    120       4.6258      2.00000
    121       4.6558      2.00000
    122       4.7136      2.00000
    123       4.7499      2.00000
    124       4.9975      2.00000
    125       5.0532      2.00000
    126       5.0974      2.00000
    127       5.5164      2.00000
    128       5.5550      2.00000
    129       6.6590      0.00000
    130       6.6919      0.00000
    131       6.7063      0.00000
    132       7.0722      0.00000
    133       7.1352      0.00000
    134       7.1980      0.00000
    135       7.4285      0.00000
    136       7.5923      0.00000
    137       7.6282      0.00000
    138       7.6628      0.00000
    139       7.6893      0.00000
    140       7.7186      0.00000
    141       7.7613      0.00000
    142       7.8856      0.00000
    143       7.9189      0.00000
    144       7.9582      0.00000
    145       7.9708      0.00000
    146       7.9917      0.00000
    147       8.0083      0.00000
    148       8.1151      0.00000
    149       8.1452      0.00000
    150       8.1595      0.00000
    151       8.1698      0.00000
    152       8.1789      0.00000
    153       8.2245      0.00000
    154       8.2826      0.00000
    155       8.4733      0.00000
    156       8.4848      0.00000
    157       8.5253      0.00000
    158       8.5585      0.00000
    159       8.5902      0.00000
    160       8.6528      0.00000
    161       8.6793      0.00000

 k-point     4 :      -0.2500   -0.2500    0.2500
  band No.  band energies     occupation 
      1      -5.9679      2.00000
      2      -5.4426      2.00000
      3      -5.4196      2.00000
      4      -5.4155      2.00000
      5      -4.9302      2.00000
      6      -4.9142      2.00000
      7      -4.9041      2.00000
      8      -4.4864      2.00000
      9      -4.3975      2.00000
     10      -4.3681      2.00000
     11      -4.3653      2.00000
     12      -4.0158      2.00000
     13      -3.9813      2.00000
     14      -3.9670      2.00000
     15      -3.9400      2.00000
     16      -3.9289      2.00000
     17      -3.9000      2.00000
     18      -3.7491      2.00000
     19      -3.7247      2.00000
     20      -3.6601      2.00000
     21      -3.2624      2.00000
     22      -3.2377      2.00000
     23      -3.2210      2.00000
     24      -2.9543      2.00000
     25      -2.8851      2.00000
     26      -2.8446      2.00000
     27      -2.7402      2.00000
     28      -2.7016      2.00000
     29      -2.6726      2.00000
     30      -2.6624      2.00000
     31      -2.6466      2.00000
     32      -2.5977      2.00000
     33      -1.2277      2.00000
     34      -1.2084      2.00000
     35      -1.1842      2.00000
     36      -1.1579      2.00000
     37      -1.1338      2.00000
     38      -1.0956      2.00000
     39      -1.0664      2.00000
     40      -1.0415      2.00000
     41      -0.9768      2.00000
     42      -0.9462      2.00000
     43      -0.9196      2.00000
     44      -0.8796      2.00000
     45      -0.8430      2.00000
     46      -0.8199      2.00000
     47      -0.7497      2.00000
     48      -0.1671      2.00000
     49      -0.0983      2.00000
     50      -0.0653      2.00000
     51      -0.0337      2.00000
     52      -0.0123      2.00000
     53       0.0150      2.00000
     54       0.0338      2.00000
     55       0.8197      2.00000
     56       0.8534      2.00000
     57       0.8816      2.00000
     58       1.1521      2.00000
     59       1.1773      2.00000
     60       1.1930      2.00000
     61       1.7009      2.00000
     62       1.7133      2.00000
     63       1.7309      2.00000
     64       1.7394      2.00000
     65       1.7494      2.00000
     66       1.7731      2.00000
     67       1.8007      2.00000
     68       1.8306      2.00000
     69       1.8469      2.00000
     70       2.3307      2.00000
     71       2.3515      2.00000
     72       2.3661      2.00000
     73       2.4113      2.00000
     74       2.4310      2.00000
     75       2.4449      2.00000
     76       2.4739      2.00000
     77       2.4914      2.00000
     78       2.5208      2.00000
     79       2.5736      2.00000
     80       2.6152      2.00000
     81       2.6285      2.00000
     82       2.8240      2.00000
     83       2.8377      2.00000
     84       2.8469      2.00000
     85       2.8543      2.00000
     86       2.8713      2.00000
     87       2.8929      2.00000
     88       3.0604      2.00000
     89       3.1039      2.00000
     90       3.1159      2.00000
     91       3.1493      2.00000
     92       3.1643      2.00000
     93       3.1861      2.00000
     94       3.4301      2.00000
     95       3.4669      2.00000
     96       3.4812      2.00000
     97       3.4938      2.00000
     98       3.5323      2.00000
     99       3.5780      2.00000
    100       3.6064      2.00000
    101       3.6118      2.00000
    102       3.6328      2.00000
    103       3.8152      2.00000
    104       3.8480      2.00000
    105       3.8676      2.00000
    106       3.8908      2.00000
    107       3.8991      2.00000
    108       3.9054      2.00000
    109       3.9300      2.00000
    110       3.9512      2.00000
    111       3.9738      2.00000
    112       4.2064      2.00000
    113       4.2441      2.00000
    114       4.2578      2.00000
    115       4.2874      2.00000
    116       4.4814      2.00000
    117       4.4934      2.00000
    118       4.5210      2.00000
    119       4.5513      2.00000
    120       4.5744      2.00000
    121       4.6258      2.00000
    122       4.7141      2.00000
    123       4.7465      2.00000
    124       5.0319      2.00000
    125       5.0511      2.00000
    126       5.1048      2.00000
    127       5.5241      2.00000
    128       5.5718      2.00000
    129       6.6714      0.00000
    130       6.6782      0.00000
    131       6.6918      0.00000
    132       7.0960      0.00000
    133       7.1387      0.00000
    134       7.1622      0.00000
    135       7.4221      0.00000
    136       7.5890      0.00000
    137       7.6228      0.00000
    138       7.6611      0.00000
    139       7.7011      0.00000
    140       7.7361      0.00000
    141       7.7729      0.00000
    142       7.8845      0.00000
    143       7.9228      0.00000
    144       7.9658      0.00000
    145       7.9761      0.00000
    146       7.9895      0.00000
    147       8.0081      0.00000
    148       8.1281      0.00000
    149       8.1443      0.00000
    150       8.1552      0.00000
    151       8.1804      0.00000
    152       8.1944      0.00000
    153       8.2240      0.00000
    154       8.2803      0.00000
    155       8.4612      0.00000
    156       8.4981      0.00000
    157       8.5066      0.00000
    158       8.5665      0.00000
    159       8.6202      0.00000
    160       8.6424      0.00000
    161       8.6825      0.00000


--------------------------------------------------------------------------------------------------------


 soft charge-density along one line, spin component           1
         0         1         2         3         4         5         6         7         8         9
 total charge-density along one line
 
 pseudopotential strength for first ion, spin component:           1
 18.409  25.684   0.001  -0.000  -0.001   0.001  -0.000  -0.001
 25.684  35.838   0.001  -0.000  -0.001   0.002  -0.001  -0.002
  0.001   0.001   4.177   0.000   0.000   7.783   0.000   0.000
 -0.000  -0.000   0.000   4.177  -0.000   0.000   7.783  -0.000
 -0.001  -0.001   0.000  -0.000   4.177   0.000  -0.000   7.783
  0.001   0.002   7.783   0.000   0.000  14.514   0.000   0.000
 -0.000  -0.001   0.000   7.783  -0.000   0.000  14.515  -0.001
 -0.001  -0.002   0.000  -0.000   7.783   0.000  -0.001  14.514
 total augmentation occupancy for first ion, spin component:           1
  5.887  -2.254  -0.122   0.026   0.003   0.044  -0.009  -0.001
 -2.254   0.975   0.075  -0.017  -0.007  -0.023   0.005   0.001
 -0.122   0.075   3.315  -0.031  -0.013  -0.807   0.010   0.004
  0.026  -0.017  -0.031   3.224  -0.019   0.010  -0.773   0.006
  0.003  -0.007  -0.013  -0.019   3.253   0.004   0.006  -0.783
  0.044  -0.023  -0.807   0.010   0.004   0.204  -0.003  -0.001
 -0.009   0.005   0.010  -0.773   0.006  -0.003   0.193  -0.002
 -0.001   0.001   0.004   0.006  -0.783  -0.001  -0.002   0.196


------------------------ aborting loop because EDIFF is reached ----------------------------------------


    CHARGE:  cpu time      3.4611: real time      3.4690
    FORLOC:  cpu time      0.0415: real time      0.0416
    FORNL :  cpu time     10.1696: real time     10.1926
    STRESS:  cpu time     32.7277: real time     32.8000
    FORCOR:  cpu time      0.1070: real time      0.1073
    FORHAR:  cpu time      0.1336: real time      0.5840
    MIXING:  cpu time      0.3250: real time      0.3257
    OFIELD:  cpu time      0.0000: real time      0.0000

  FORCE on cell =-STRESS in cart. coord.  units (eV):
  Direction    XX          YY          ZZ          XY          YZ          ZX
  --------------------------------------------------------------------------------------
  Alpha Z   107.23396   107.23396   107.23396
  Ewald   -2433.50286 -2436.07402 -2429.42755    12.66228     5.89463     6.88576
  Hartree   160.69012   159.07268   162.41805     1.37071     0.43113     1.19701
  E(xc)    -811.71181  -811.68993  -811.74735    -0.12703    -0.05947    -0.04670
  Local    -943.20966  -938.89339  -948.94543   -13.37130    -5.85732    -8.02901
  n-local  2494.71701  2494.29622  2495.35483     2.87154     1.43403     1.14070
  augment  -372.16315  -372.12352  -372.19177    -0.15994    -0.04487    -0.09899
  Kinetic  1811.14663  1810.97152  1810.94172    -1.19593    -1.13281    -0.21455
  Fock        0.00000     0.00000     0.00000     0.00000     0.00000     0.00000
  -------------------------------------------------------------------------------------
  Total      13.20025    12.79353    13.63645     2.05033     0.66531     0.83422
  in kB      16.44791    15.94112    16.99143     2.55477     0.82900     1.03946
  external pressure =       16.46 kB  Pullay stress =        0.00 kB


 VOLUME and BASIS-vectors are now :
 -----------------------------------------------------------------------------
  energy-cutoff  :      250.00
  volume of cell :     1285.83
      direct lattice vectors                 reciprocal lattice vectors
    10.872503140  0.000000000  0.000000000     0.091975140  0.000062285  0.000094729
    -0.007365150 10.876060700  0.000000000     0.000000000  0.091945055 -0.000062179
    -0.011204300  0.007353500 10.873789840     0.000000000  0.000000000  0.091964257

  length of vectors
    10.872503140 10.876063194 10.873798099     0.091975210  0.091945076  0.091964257


 FORCES acting on ions
    electron-ion (+dipol)            ewald-force                    non-local-force                 convergence-correction
 -----------------------------------------------------------------------------------------------
   0.683E+00 -.122E+01 0.153E+01   -.612E+00 0.858E+00 -.145E+01   0.113E+00 0.489E+00 -.725E-01   0.982E-03 -.571E-03 -.257E-03
   0.217E+01 0.314E+01 0.120E+01   -.229E+01 -.306E+01 -.140E+01   -.517E+00 0.471E+00 0.107E+00   0.914E-04 0.148E-03 0.687E-03
   -.105E+00 -.223E+01 0.515E+01   -.931E-01 0.154E+01 -.452E+01   0.123E+00 0.139E+01 -.109E+01   0.870E-03 -.994E-04 0.508E-04
   0.131E+01 0.418E-01 0.191E+01   -.148E+01 -.300E+00 -.180E+01   0.614E+00 0.790E+00 0.993E-01   0.319E-04 -.151E-02 -.630E-03
   0.401E+00 0.467E+01 -.649E-01   -.731E+00 -.462E+01 -.193E+00   0.245E+00 -.882E+00 0.381E+00   -.628E-03 -.453E-03 -.517E-03
   -.124E+01 0.216E+01 0.294E+01   0.137E+01 -.212E+01 -.270E+01   0.515E+00 -.795E+00 -.555E+00   0.786E-03 -.385E-03 -.741E-03
   0.102E+01 0.333E+01 0.568E-02   -.600E+00 -.344E+01 0.122E-01   -.116E+00 -.148E+00 -.325E+00   0.103E-02 -.766E-03 -.494E-04
   0.522E+01 0.300E+01 0.500E+01   -.498E+01 -.292E+01 -.433E+01   -.593E+00 -.246E+00 -.126E+01   -.981E-03 0.422E-03 0.152E-02
   0.449E+01 0.621E+01 -.832E+00   -.413E+01 -.560E+01 0.107E+01   -.680E+00 -.187E+01 -.688E+00   0.587E-03 -.652E-03 0.634E-03
   0.936E+00 0.440E+01 -.558E+01   -.105E+01 -.408E+01 0.499E+01   -.849E-01 -.760E+00 0.125E+01   -.257E-03 -.144E-02 0.180E-03
   0.202E+01 0.297E+01 -.286E+01   -.210E+01 -.285E+01 0.259E+01   -.261E+00 -.577E+00 0.617E+00   -.303E-03 -.117E-02 0.282E-04
   -.245E+01 0.146E+01 -.280E+01   0.193E+01 -.157E+01 0.245E+01   0.162E+01 0.447E+00 0.494E-01   -.709E-03 0.609E-03 -.721E-03
   -.868E+00 -.109E+01 -.401E+01   0.431E+00 0.503E+00 0.374E+01   0.111E+01 0.129E+01 0.723E+00   -.984E-03 -.704E-03 -.121E-02
   0.590E+00 0.170E+01 -.986E+00   -.261E+00 -.152E+01 0.109E+01   -.370E-03 -.823E+00 -.346E+00   0.511E-04 -.717E-03 -.310E-03
   -.960E+00 0.502E+01 0.316E+01   0.104E+01 -.477E+01 -.285E+01   -.775E-02 -.709E+00 -.435E+00   0.150E-02 -.113E-02 0.136E-02
   0.306E+01 0.178E+01 0.673E+00   -.280E+01 -.187E+01 -.358E+00   -.838E+00 -.425E+00 -.347E-01   -.619E-03 0.150E-02 0.898E-04
   0.212E+01 -.127E+01 0.176E+01   -.197E+01 0.125E+01 -.148E+01   -.173E+00 0.391E+00 -.920E+00   0.147E-02 0.102E-02 -.110E-02
   0.292E+01 -.392E+01 0.257E-01   -.263E+01 0.368E+01 -.188E+00   -.699E+00 0.541E+00 0.371E+00   -.972E-03 0.337E-03 -.676E-03
   0.331E+01 -.255E+01 -.876E+00   -.323E+01 0.258E+01 0.648E+00   -.105E+01 -.637E-01 0.369E+00   0.208E-03 0.704E-03 -.112E-02
   0.414E+01 0.129E+01 -.887E+00   -.395E+01 -.900E+00 0.866E+00   -.479E+00 -.145E+01 -.139E-02   -.431E-03 0.925E-03 0.656E-04
   0.588E+01 -.395E+01 -.908E+00   -.561E+01 0.377E+01 0.714E+00   -.687E+00 0.785E+00 0.232E+00   -.291E-03 -.118E-03 -.204E-02
   -.195E+01 -.199E+01 0.303E+01   0.203E+01 0.184E+01 -.270E+01   0.291E+00 0.106E+01 -.624E+00   0.117E-02 0.625E-03 0.353E-03
   -.455E+01 -.871E+01 -.151E+01   0.452E+01 0.808E+01 0.151E+01   0.107E+01 0.173E+01 0.490E+00   -.238E-03 0.426E-03 -.896E-03
   0.506E+01 -.134E+01 -.387E+01   -.448E+01 0.141E+01 0.323E+01   -.118E+01 0.205E+00 0.112E+01   -.726E-03 0.362E-03 0.912E-03
   0.517E+01 -.120E+01 0.140E+01   -.457E+01 0.132E+01 -.118E+01   -.153E+01 0.962E-01 -.149E+00   -.567E-03 0.711E-03 0.206E-02
   -.191E+01 -.134E+00 0.132E+00   0.149E+01 0.491E+00 0.102E+00   0.439E+00 -.750E+00 -.515E+00   -.176E-02 0.499E-03 0.354E-03
   0.276E+01 -.155E+01 -.179E+01   -.252E+01 0.184E+01 0.157E+01   -.634E+00 0.191E+00 0.823E-01   -.271E-02 0.301E-03 0.710E-03
   -.301E+01 -.744E+01 0.305E+01   0.231E+01 0.676E+01 -.271E+01   0.189E+01 0.151E+01 -.142E+01   -.160E-02 -.171E-02 -.326E-03
   0.229E+01 -.561E+01 -.239E+01   -.230E+01 0.531E+01 0.230E+01   0.139E+00 0.600E+00 0.841E+00   -.286E-02 -.185E-04 0.232E-03
   -.274E+01 -.352E+01 -.541E+00   0.263E+01 0.329E+01 0.505E+00   0.632E+00 0.759E+00 -.170E+00   -.224E-03 0.101E-02 -.117E-04
   -.508E+01 0.557E+00 -.273E+01   0.457E+01 -.880E-02 0.235E+01   0.119E+01 -.167E+01 0.862E+00   -.114E-02 0.102E-02 0.599E-03
   -.128E+00 -.255E+01 0.349E+01   -.188E+00 0.272E+01 -.293E+01   0.360E+00 0.176E+00 -.108E+01   -.170E-03 -.444E-03 0.918E-03
   -.255E+00 0.194E+01 -.174E+01   0.340E+00 -.213E+01 0.144E+01   0.301E+00 -.598E+00 0.651E+00   0.867E-03 0.688E-03 0.780E-03
   0.106E+01 0.292E+01 0.423E+00   -.970E+00 -.281E+01 -.479E+00   -.647E+00 -.546E-01 -.878E-01   -.783E-03 -.108E-03 0.198E-03
   -.363E+01 0.435E+01 0.212E+01   0.339E+01 -.417E+01 -.179E+01   0.535E+00 -.102E+01 -.754E+00   -.137E-02 0.645E-05 0.107E-03
   -.417E+01 0.248E+01 -.681E+00   0.385E+01 -.266E+01 0.480E+00   0.836E+00 0.473E+00 0.559E+00   0.208E-03 -.182E-02 -.773E-03
   -.836E+00 0.350E+01 0.138E+01   0.927E+00 -.336E+01 -.130E+01   -.374E+00 -.859E-01 -.587E+00   -.185E-02 -.111E-02 0.137E-03
   0.578E+00 -.823E+00 -.106E+01   -.631E+00 0.661E+00 0.907E+00   0.400E+00 -.221E+00 0.418E+00   0.733E-03 -.652E-03 -.152E-02
   0.242E+01 0.172E+01 -.337E+01   -.239E+01 -.179E+01 0.304E+01   -.649E+00 0.438E+00 0.559E+00   -.496E-03 -.469E-03 0.269E-03
   -.287E+01 0.603E+01 0.386E+01   0.268E+01 -.550E+01 -.327E+01   0.321E+00 -.166E+01 -.120E+01   -.295E-03 0.418E-03 0.160E-02
   -.171E+01 0.555E+01 -.130E+01   0.169E+01 -.487E+01 0.136E+01   -.669E+00 -.131E+01 0.220E-01   0.104E-02 0.725E-03 -.475E-03
   -.133E+01 0.532E+01 -.207E+00   0.146E+01 -.499E+01 0.346E+00   0.452E-01 -.959E+00 -.142E+00   0.139E-03 0.193E-03 0.221E-03
   -.213E+01 0.177E+01 0.702E+01   0.187E+01 -.203E+01 -.637E+01   0.606E+00 0.606E+00 -.190E+01   -.106E-03 -.104E-02 -.450E-03
   -.137E+01 0.191E+01 0.450E-01   0.149E+01 -.195E+01 -.113E+00   -.510E+00 0.209E+00 0.175E+00   0.519E-03 -.153E-02 0.467E-04
   -.921E+01 0.544E+01 -.159E+01   0.849E+01 -.543E+01 0.154E+01   0.202E+01 -.259E+00 0.458E+00   -.509E-03 -.137E-02 -.996E-03
   0.185E+00 -.144E+01 0.106E+01   -.290E+00 0.876E+00 -.927E+00   -.407E+00 0.877E+00 -.405E+00   0.104E-02 0.943E-03 -.404E-03
   0.242E+01 0.581E+01 0.865E+00   -.229E+01 -.569E+01 -.877E+00   -.287E+00 -.960E+00 0.523E+00   0.702E-03 -.395E-03 -.594E-03
   -.217E+01 -.527E+00 -.117E+01   0.209E+01 0.183E+00 0.118E+01   0.320E+00 0.354E+00 0.267E+00   0.531E-03 -.483E-03 0.732E-03
   -.800E-01 -.433E+01 0.423E+01   0.249E+00 0.400E+01 -.395E+01   -.148E+00 0.125E+01 -.125E+01   -.665E-05 -.440E-03 0.140E-02
   -.328E+01 -.221E+01 0.137E+01   0.291E+01 0.203E+01 -.131E+01   0.105E+01 -.262E+00 -.122E+00   0.441E-03 0.103E-02 -.409E-03
   -.206E+01 -.203E+01 -.903E+00   0.204E+01 0.227E+01 0.723E+00   0.403E+00 -.456E+00 -.118E+00   -.939E-03 0.152E-02 0.139E-02
   -.235E+01 0.293E+01 0.769E+00   0.227E+01 -.232E+01 -.982E+00   -.540E+00 -.176E+01 -.145E+00   0.219E-03 0.194E-02 -.903E-03
   0.101E+01 -.358E+01 0.308E+01   -.573E+00 0.357E+01 -.283E+01   -.118E+01 0.594E+00 0.341E+00   -.316E-03 0.672E-03 -.405E-04
   0.371E+01 -.170E+00 -.161E+01   -.321E+01 0.397E+00 0.136E+01   -.118E+01 0.473E+00 0.555E+00   0.755E-04 -.478E-03 -.156E-03
   -.350E+01 -.395E+01 -.687E+00   0.292E+01 0.393E+01 0.584E+00   0.115E+01 0.531E+00 -.996E-01   -.553E-03 0.597E-03 0.234E-02
   -.247E+01 -.152E+01 -.242E+01   0.254E+01 0.149E+01 0.202E+01   0.454E+00 0.311E+00 0.900E+00   -.194E-03 0.117E-02 -.180E-03
   -.136E+01 -.632E+01 -.301E+01   0.142E+01 0.584E+01 0.267E+01   -.647E+00 0.156E+01 0.106E+01   0.243E-02 -.105E-02 -.706E-03
   0.320E+01 -.224E+01 -.915E+00   -.252E+01 0.237E+01 0.103E+01   -.656E+00 -.413E+00 0.301E+00   0.125E-02 -.229E-03 0.797E-03
   -.191E+01 0.917E+00 -.131E+01   0.195E+01 -.552E+00 0.131E+01   0.463E+00 -.565E+00 0.456E+00   0.130E-02 0.112E-02 -.127E-02
   -.444E+01 -.619E+01 -.617E-01   0.404E+01 0.582E+01 0.219E+00   0.805E+00 0.986E+00 0.408E+00   0.347E-03 -.664E-04 -.157E-03
   -.171E+01 -.537E+01 0.117E+01   0.176E+01 0.511E+01 -.110E+01   -.922E-01 0.568E+00 -.140E+01   0.196E-02 0.336E-03 -.299E-03
   0.164E+01 -.546E+01 -.994E+00   -.187E+01 0.487E+01 0.910E+00   -.193E+00 0.146E+01 0.837E+00   0.759E-04 -.155E-02 0.303E-03
   0.261E+01 0.219E+01 -.563E+01   -.239E+01 -.153E+01 0.476E+01   -.122E+01 -.129E+01 0.214E+01   0.177E-02 0.165E-02 -.181E-02
   0.353E+01 -.223E+00 -.590E+00   -.299E+01 0.729E+00 0.438E+00   -.114E+01 -.425E+00 -.257E+00   0.901E-03 0.106E-02 0.120E-02
 -----------------------------------------------------------------------------------------------
   0.343E-01 -.155E+00 -.433E-01   0.243E-12 -.142E-13 -.112E-12   -.791E-02 0.141E+00 0.444E-01   -.268E-03 0.172E-04 0.519E-03
 
 
 POSITION                                       TOTAL-FORCE (eV/Angst)
 -----------------------------------------------------------------------------------
      0.03248      0.06515      0.01984         0.184048      0.129689      0.008742
      2.84305      2.73479      0.03756        -0.637893      0.556160     -0.096246
      2.77648     10.86476      2.77794        -0.074301      0.703666     -0.459077
      0.00243      2.75211      2.69035         0.445899      0.530589      0.209785
      1.43630      1.44367      1.37505        -0.086352     -0.834632      0.122715
      4.06683      4.14406      1.43234         0.646071     -0.748121     -0.312216
      4.04868      1.43148      4.16030         0.307863     -0.267213     -0.306897
      1.44091      4.09713      4.07922        -0.356537     -0.161784     -0.598111
      0.08417      0.11819      5.52322        -0.318138     -1.263608     -0.448533
      2.74248      2.82528      5.48612        -0.203483     -0.436797      0.656936
      2.75806      0.09222      8.18535        -0.340723     -0.461938      0.343758
     10.83387      2.76320      8.28321         1.093882      0.342144     -0.300327
      1.33691      1.43677      6.86676         0.670123      0.701803      0.457639
      4.08841      4.20455      6.84943         0.327796     -0.642054     -0.239529
      4.14285      1.48105      9.50510         0.078317     -0.460081     -0.126023
      1.45679      4.14535      9.57329        -0.583798     -0.503780      0.280303
      0.06667      5.43766      0.12152        -0.018990      0.369299     -0.644459
      2.73712      8.14075      0.05881        -0.403140      0.307994      0.208672
      2.83046      5.46818      2.77633        -0.976970     -0.036593      0.139934
      0.09708      8.26578      2.81802        -0.292968     -1.060186     -0.022372
      1.43686      6.77941      1.46663        -0.422655      0.602380      0.035467
      4.09059      9.45752      1.42481         0.365825      0.912554     -0.301506
      4.12677      6.77977      4.09203         1.038553      1.106353      0.490326
      1.46858      9.58009      4.15245        -0.608392      0.272074      0.475894
      0.14906      5.43329      5.44225        -0.933358      0.208906      0.070249
      2.79227      8.19947      5.48217         0.009451     -0.392898     -0.279752
      2.76262      5.50285      8.20469        -0.397778      0.480156     -0.130884
     -0.01098      8.13706      8.21546         1.191054      0.832866     -1.085058
      1.40279      6.82730      6.77825         0.122578      0.298903      0.753569
      4.08578      9.57191      6.83248         0.521199      0.526000     -0.205226
      4.05526      6.92036      9.53286         0.678731     -1.123752      0.487215
      1.37419      9.52906      9.59143         0.043020      0.351060     -0.520248
      5.40307      0.13464      0.08095         0.386635     -0.785851      0.349987
      8.19760      2.77116      0.08202        -0.562193      0.054243     -0.143579
      8.24300      0.10496      2.79901         0.294615     -0.842157     -0.423399
      5.40224      2.77306      2.78405         0.513498      0.289399      0.357193
      6.84099      1.43126      1.49131        -0.284815      0.060533     -0.506902
      9.46961      4.18456      1.42129         0.346574     -0.384290      0.265960
      9.62985      1.42080      4.13335        -0.627268      0.363532      0.234139
      6.81629      4.19488      4.14082         0.128113     -1.126906     -0.606771
      5.49173      0.09985      5.43799        -0.686233     -0.629317      0.086698
      8.20977      2.84626      5.47162         0.176517     -0.630165     -0.001979
      8.11585     10.86579      8.27131         0.344514      0.342953     -1.252552
      5.48937      2.80677      8.13324        -0.389281      0.167368      0.107569
      6.76855      1.44109      6.78958         1.304559     -0.257698      0.413421
      9.63539      4.11961      6.84995        -0.511579      0.315173     -0.276170
      9.48279      1.44275      9.55116        -0.156411     -0.845334      0.511254
      6.81053      4.10935      9.54105         0.247427      0.009342      0.275651
      5.44520      5.40496      0.08414         0.020547      0.919842     -0.965489
      8.20373      8.22041     10.87195         0.676876     -0.436082     -0.063835
      8.15003      5.54135      2.81025         0.379230     -0.213843     -0.296056
      5.57695      8.21604      2.72466        -0.619261     -1.151758     -0.358964
      6.92474      6.77891      1.29362        -0.744855      0.581309      0.583119
      9.62249      9.51636      1.38386        -0.674625      0.698830      0.309457
      9.53701      6.81066      4.17265         0.577814      0.517151     -0.200424
      6.80619      9.60160      4.06038         0.522458      0.279816      0.497599
      5.51345      5.44474      5.48078        -0.587499      1.076713      0.708985
      8.11261      8.19741      5.44391         0.027369     -0.276794      0.420531
      8.19581      5.46002      8.17838         0.501352     -0.198809      0.449647
      5.41817      8.20017      8.18052         0.400415      0.622727      0.565724
      6.81379      6.81964      6.95612        -0.048415      0.309962     -1.323121
      9.56193      9.48207      6.76580        -0.422350      0.872395      0.753321
      9.61626      6.81406      9.49858        -0.997119     -0.624183      1.272425
      6.77101      9.57091      9.65424        -0.605542      0.082740     -0.408179
 -----------------------------------------------------------------------------------
    total drift:                                0.026111     -0.014200      0.001655


--------------------------------------------------------------------------------------------------------



  FREE ENERGIE OF THE ION-ELECTRON SYSTEM (eV)
  ---------------------------------------------------
  free  energy   TOTEN  =      -344.59751075 eV

  energy  without entropy=     -344.59751075  energy(sigma->0) =     -344.59751075
 


--------------------------------------------------------------------------------------------------------


    POTLOK:  cpu time      0.2724: real time      0.2730


--------------------------------------------------------------------------------------------------------


 writing wavefunctions
     LOOP+:  cpu time    234.2539: real time    243.4226
    4ORBIT:  cpu time      0.0000: real time      0.0000

 total amount of memory used by VASP MPI-rank0    37774. kBytes
=======================================================================

   base      :      30000. kBytes
   nonlr-proj:       1206. kBytes
   fftplans  :        841. kBytes
   grid      :       1174. kBytes
   one-center:          9. kBytes
   wavefun   :       4544. kBytes
 
  
  
 General timing and accounting informations for this job:
 ========================================================
  
                  Total CPU time used (sec):      276.074
                            User time (sec):      275.859
                          System time (sec):        0.215
                         Elapsed time (sec):      290.029
  
                   Maximum memory used (kb):      211684.
                   Average memory used (kb):          N/A
  
                          Minor page faults:        19371
                          Major page faults:         7543
                 Voluntary context switches:         4623
