 vasp.6.4.2 20Jul23 (build Jun 27 2024 19:57:08) complex                        
  
 executed on                 T2A5 date 2026.01.13  20:54:34
 running   28 mpi-ranks, with    1 threads/rank, on    1 nodes
 distrk:  each k-point on   28 cores,    1 groups
 distr:  one band on NCORE=  28 cores,    1 groups


--------------------------------------------------------------------------------------------------------


 INCAR:
   ISTART = 1
   ICHARG = 1
   LWAVE = .T.
   LCHARG = .T.
   ENCUT = 250
   PREC = Normal
   ADDGRID = .F.
   EDIFF = 1E-4
   LREAL = Auto
   ALGO = Fast
   NSW = 0
   IBRION = -1
   ISMEAR = 0
   SIGMA = 0.1
   NPAR = 1
   KPAR = 1
   SYMPREC = 1E-4

 POTCAR:    PAW_PBE Si 05Jan2001                  
 POTCAR:    PAW_PBE Si 05Jan2001                  
   SHA256 =  79d9987ad8750f624c4d6acb2a16d13abf6a777132adc04dc6c8399be72b42bb Si/POTCAR             
   COPYR  = (c) Copyright 05Jan2001 Georg Kresse                                                    
   COPYR  = This file is part of the software VASP. Any use, copying, and all other rights are regul
   COPYR  = If you do not have a valid VASP license, you may not use, copy or distribute this file. 
   VRHFIN =Si: s2p2                                                                                 
   LEXCH  = PE                                                                                      
   EATOM  =   103.0669 eV,    7.5752 Ry                                                             
                                                                                                    
   TITEL  = PAW_PBE Si 05Jan2001                                                                    
   LULTRA =        F    use ultrasoft PP ?                                                          
   IUNSCR =        1    unscreen: 0-lin 1-nonlin 2-no                                               
   RPACOR =    1.500    partial core radius                                                         
   POMASS =   28.085; ZVAL   =    4.000    mass and valenz                                          
   RCORE  =    1.900    outmost cutoff radius                                                       
   RWIGS  =    2.480; RWIGS  =    1.312    wigner-seitz radius (au A)                               
   ENMAX  =  245.345; ENMIN  =  184.009 eV                                                          
   ICORE  =        2    local potential                                                             
   LCOR   =        T    correct aug charges                                                         
   LPAW   =        T    paw PP                                                                      
   EAUG   =  322.069                                                                                
   DEXC   =    0.000                                                                                
   RMAX   =    1.950    core radius for proj-oper                                                   
   RAUG   =    1.300    factor for augmentation sphere                                              
   RDEP   =    1.993    radius for radial grids                                                     
   RDEPT  =    1.837    core radius for aug-charge                                                  
                                                                                                    
   Atomic configuration                                                                             
    6 entries                                                                                       
     n  l   j            E        occ.                                                              
     1  0  0.50     -1785.8828   2.0000                                                             
     2  0  0.50      -139.4969   2.0000                                                             
     2  1  1.50       -95.5546   6.0000                                                             
     3  0  0.50       -10.8127   2.0000                                                             
     3  1  0.50        -4.0811   2.0000                                                             
     3  2  1.50        -4.0817   0.0000                                                             
   Description                                                                                      
     l       E           TYP  RCUT    TYP  RCUT                                                     
     0    -10.8127223     23  1.900                                                                 
     0     -7.6451159     23  1.900                                                                 
     1     -4.0811372     23  1.900                                                                 
     1      2.4879257     23  1.900                                                                 
     2     -4.0817478      7  1.900                                                                 
  local pseudopotential read in
  partial core-charges read in
  partial kinetic energy density read in
  atomic valenz-charges read in
  non local Contribution for L=           0  read in
    real space projection operators read in
  non local Contribution for L=           0  read in
    real space projection operators read in
  non local Contribution for L=           1  read in
    real space projection operators read in
  non local Contribution for L=           1  read in
    real space projection operators read in
    PAW grid and wavefunctions read in
 
   number of l-projection  operators is LMAX  =           4
   number of lm-projection operators is LMMAX =           8
 
 Optimization of the real space projectors (new method)

 maximal supplied QI-value         = 19.84
 optimisation between [QCUT,QGAM] = [  7.94, 16.07] = [ 17.64, 72.34] Ry 
 Optimized for a Real-space Cutoff    1.55 Angstroem

   l    n(q)    QCUT    max X(q) W(low)/X(q) W(high)/X(q)  e(spline) 
   0      7     7.937   159.560    0.97E-04    0.31E-03    0.13E-06
   0      7     7.937   115.863    0.95E-04    0.31E-03    0.13E-06
   1      7     7.937    88.339    0.40E-03    0.66E-03    0.12E-06
   1      7     7.937    48.592    0.39E-03    0.64E-03    0.12E-06
  PAW_PBE Si 05Jan2001                  :
 energy of atom  1       EATOM= -103.0669
 kinetic energy error for atom=    0.0052 (will be added to EATOM!!)
 
 
 POSCAR: Si
  positions in cartesian coordinates
  No initial velocities read in
 exchange correlation table for  LEXCH =        8
   RHO(1)=    0.500       N(1)  =     2000
   RHO(2)=  100.500       N(2)  =     4000
 


--------------------------------------------------------------------------------------------------------


 ion  position               nearest neighbor table
   1  0.002  0.992  0.994-  32 2.31  54 2.35   5 2.37  47 2.44
   2  0.254  0.250  0.001-   5 2.32  15 2.35  16 2.42   6 2.43
   3  0.245  0.007  0.254-  22 2.36  24 2.37   7 2.38   5 2.40
   4  0.011  0.241  0.252-   5 2.32  39 2.34  38 2.40   8 2.47
   5  0.124  0.126  0.114-   4 2.32   2 2.32   1 2.37   3 2.40
   6  0.390  0.375  0.124-  49 2.33  19 2.37  36 2.39   2 2.43
   7  0.369  0.132  0.383-  10 2.34  36 2.35  41 2.37   3 2.38
   8  0.130  0.381  0.383-  25 2.32  10 2.35  19 2.47   4 2.47
   9  0.998  0.002  0.512-  13 2.29  62 2.32  39 2.35  24 2.48
  10  0.247  0.253  0.510-   7 2.34   8 2.35  14 2.37  13 2.44
  11  0.246  0.001  0.748-  32 2.36  15 2.37  13 2.37  30 2.38
  12  0.982  0.251  0.763-  47 2.31  46 2.33  16 2.40  13 2.41
  13  0.112  0.128  0.635-   9 2.29  11 2.37  12 2.41  10 2.44
  14  0.376  0.384  0.627-  27 2.34  10 2.37  57 2.42  44 2.43
  15  0.372  0.120  0.878-  33 2.31   2 2.35  11 2.37  44 2.43
  16  0.120  0.377  0.878-  27 2.34  17 2.35  12 2.40   2 2.42
  17  0.999  0.498  0.007-  38 2.33  21 2.33  16 2.35  63 2.40
  18  0.250  0.756  0.002-  32 2.33  31 2.36  22 2.37  21 2.41
  19  0.264  0.501  0.248-  23 2.33   6 2.37  21 2.39   8 2.47
  20  0.009  0.751  0.257-  54 2.31  24 2.33  55 2.39  21 2.40
  21  0.127  0.621  0.126-  17 2.33  19 2.39  20 2.40  18 2.41
  22  0.371  0.883  0.130-  52 2.32   3 2.36  33 2.36  18 2.37
  23  0.383  0.628  0.372-  19 2.33  26 2.39  57 2.41  52 2.44
  24  0.132  0.874  0.381-  20 2.33  26 2.35   3 2.37   9 2.48
  25  0.002  0.504  0.500-  29 2.30   8 2.32  55 2.34  46 2.40
  26  0.262  0.754  0.503-  30 2.33  24 2.35  29 2.36  23 2.39
  27  0.245  0.496  0.752-  14 2.34  16 2.34  31 2.38  29 2.40
  28  0.997  0.748  0.751-  63 2.28  62 2.34  32 2.36  29 2.48
  29  0.131  0.624  0.615-  25 2.30  26 2.36  27 2.40  28 2.48
  30  0.380  0.878  0.629-  26 2.33  60 2.36  11 2.38  41 2.46
  31  0.368  0.626  0.876-  60 2.34  18 2.36  27 2.38  49 2.48
  32  0.126  0.871  0.873-   1 2.31  18 2.33  11 2.36  28 2.36
  33  0.496  0.002  0.001-  15 2.31  37 2.32  22 2.36  64 2.40
  34  0.738  0.249  0.009-  38 2.37  37 2.39  48 2.39  47 2.39
  35  0.750  0.005  0.249-  37 2.33  56 2.35  39 2.36  54 2.48
  36  0.504  0.249  0.262-  37 2.32   7 2.35   6 2.39  40 2.46
  37  0.613  0.121  0.134-  36 2.32  33 2.32  35 2.33  34 2.39
  38  0.882  0.364  0.124-  17 2.33  34 2.37   4 2.40  51 2.42
  39  0.882  0.121  0.374-   4 2.34   9 2.35  35 2.36  42 2.40
  40  0.639  0.383  0.383-  57 2.31  42 2.33  51 2.38  36 2.46
  41  0.506  0.004  0.491-  45 2.27  56 2.37   7 2.37  30 2.46
  42  0.761  0.253  0.501-  40 2.33  46 2.35  45 2.36  39 2.40
  43  0.740  0.005  0.748-  64 2.31  47 2.34  62 2.36  45 2.40
  44  0.502  0.246  0.747-  45 2.36  48 2.37  14 2.43  15 2.43
  45  0.621  0.129  0.611-  41 2.27  44 2.36  42 2.36  43 2.40
  46  0.876  0.380  0.630-  12 2.33  42 2.35  25 2.40  59 2.43
  47  0.862  0.122  0.880-  12 2.31  43 2.34  34 2.39   1 2.44
  48  0.626  0.375  0.869-  49 2.33  59 2.37  44 2.37  34 2.39
  49  0.511  0.499  0.999-  48 2.33   6 2.33  53 2.34  31 2.48
  50  0.756  0.757  0.007-  53 2.31  54 2.33  64 2.35  63 2.40
  51  0.757  0.502  0.245-  55 2.35  40 2.38  53 2.39  38 2.42
  52  0.505  0.764  0.244-  56 2.29  22 2.32  23 2.44  53 2.45
  53  0.631  0.628  0.119-  50 2.31  49 2.34  51 2.39  52 2.45
  54  0.888  0.870  0.131-  20 2.31  50 2.33   1 2.35  35 2.48
  55  0.876  0.625  0.376-  25 2.34  51 2.35  58 2.38  20 2.39
  56  0.631  0.874  0.371-  52 2.29  35 2.35  41 2.37  58 2.39
  57  0.512  0.504  0.501-  40 2.31  23 2.41  61 2.41  14 2.42
  58  0.763  0.761  0.503-  62 2.30  55 2.38  56 2.39  61 2.43
  59  0.744  0.512  0.751-  61 2.31  48 2.37  63 2.41  46 2.43
  60  0.497  0.749  0.756-  61 2.30  31 2.34  30 2.36  64 2.46
  61  0.627  0.641  0.630-  60 2.30  59 2.31  57 2.41  58 2.43
  62  0.875  0.880  0.635-  58 2.30   9 2.32  28 2.34  43 2.36
  63  0.880  0.630  0.877-  28 2.28  50 2.40  17 2.40  59 2.41
  64  0.633  0.880  0.880-  43 2.31  50 2.35  33 2.40  60 2.46
 
  LATTYP: Found a base centered monoclinic cell.
 ALAT       =    15.4575686643
 B/A-ratio  =     0.9998427762
 C/A-ratio  =     1.2241134807
 COS(beta)  =    -0.8162450194
  
  Lattice vectors:
  
 A1 = (   0.0095630700, -10.9289649400,   0.0000000000)
 A2 = (   0.0084363800,  -0.0017111500, -10.9296123100)
 A3 = (  10.9132533300,  10.9306760900,  10.9296123100)


Analysis of symmetry for initial positions (statically):
=====================================================================
 Subroutine PRICEL returns:
 Original cell was already a primitive cell.
 

 Routine SETGRP: Setting up the symmetry group for a 
 base centered monoclinic supercell.


 Subroutine GETGRP returns: Found  1 space group operations
 (whereof  1 operations were pure point group operations)
 out of a pool of  4 trial point group operations.


The static configuration has the point symmetry C_1 .


Analysis of symmetry for dynamics (positions and initial velocities):
=====================================================================
 Subroutine PRICEL returns:
 Original cell was already a primitive cell.
 

 Routine SETGRP: Setting up the symmetry group for a 
 base centered monoclinic supercell.


 Subroutine GETGRP returns: Found  1 space group operations
 (whereof  1 operations were pure point group operations)
 out of a pool of  4 trial point group operations.


The dynamic configuration has the point symmetry C_1 .


 Subroutine INISYM returns: Found  1 space group operations
 (whereof  1 operations are pure point group operations),
 and found     1 'primitive' translations


----------------------------------------------------------------------------------------

                                     Primitive cell                                     

  volume of cell :    1305.7310

  direct lattice vectors                    reciprocal lattice vectors
    10.931252780  0.000000000  0.000000000     0.091480823  0.000080048  0.000070600
    -0.009563070 10.928964940  0.000000000     0.000000000  0.091499973 -0.000014325
    -0.008436380  0.001711150 10.929612310     0.000000000  0.000000000  0.091494554

  length of vectors
    10.931252780 10.928969124 10.929615700     0.091480885  0.091499974  0.091494554

  position of ions in fractional coordinates (direct lattice)
     0.002250634  0.991700311  0.994398574
     0.253530254  0.249640753  0.000965545
     0.245393456  0.007053335  0.253868793
     0.010683170  0.241172662  0.252241667
     0.123527095  0.125748438  0.114487160
     0.389959012  0.375125856  0.124367585
     0.369230568  0.132177712  0.382589727
     0.130263287  0.381020984  0.383337505
     0.998177687  0.001863136  0.511675920
     0.247346712  0.253354602  0.510248853
     0.245911142  0.000567596  0.747975254
     0.981759461  0.250662905  0.762960302
     0.111579918  0.127725699  0.634530684
     0.376340945  0.383710624  0.626616079
     0.372454037  0.119989855  0.877615904
     0.120334235  0.376889905  0.878390200
     0.998872928  0.498190481  0.006900907
     0.249693209  0.755580985  0.002205066
     0.264393806  0.501487405  0.247735003
     0.009040392  0.750902123  0.256954623
     0.127040848  0.620730774  0.125944088
     0.370775778  0.882785646  0.130047616
     0.382936358  0.627794927  0.371591191
     0.131671722  0.873546521  0.380668228
     0.001780921  0.503759968  0.499633383
     0.262240403  0.753611229  0.502637784
     0.245095567  0.496235269  0.752167459
     0.997381848  0.747879135  0.750822056
     0.130616922  0.624340982  0.614753853
     0.380374326  0.878052009  0.629101389
     0.368236467  0.626430991  0.875812845
     0.126469779  0.871382884  0.872751721
     0.496415398  0.001967781  0.001169114
     0.737963833  0.248820995  0.008732525
     0.749775172  0.005227644  0.249215873
     0.503613233  0.248954213  0.262191903
     0.612575987  0.120622987  0.133653049
     0.881544967  0.364455547  0.123762262
     0.882375697  0.120553417  0.374496515
     0.638849847  0.382702223  0.383393054
     0.506070275  0.004019966  0.491039646
     0.760598452  0.252557587  0.500946554
     0.740207020  0.005319901  0.748047749
     0.501595407  0.245909483  0.747454822
     0.621462575  0.128887747  0.611052482
     0.875856295  0.379936233  0.630035229
     0.861903224  0.122269490  0.880093557
     0.625806717  0.374918006  0.869372840
     0.510553309  0.498651413  0.998510693
     0.756343671  0.757223607  0.006643740
     0.757127606  0.501840546  0.244897853
     0.504710429  0.764336367  0.244004366
     0.631436625  0.628250784  0.118936294
     0.888379742  0.870005536  0.130556019
     0.875761208  0.625295010  0.375689270
     0.630726217  0.874244175  0.370862757
     0.512385208  0.504235712  0.500723589
     0.763262290  0.761118585  0.502501286
     0.743815855  0.512080065  0.750594995
     0.497420369  0.749067490  0.756210097
     0.627102670  0.641300744  0.630433611
     0.875199192  0.880362146  0.635489206
     0.880240218  0.630201862  0.877421814
     0.633076556  0.879579406  0.880018247

  ion indices of the primitive-cell ions
   primitive index   ion index
                 1           1
                 2           2
                 3           3
                 4           4
                 5           5
                 6           6
                 7           7
                 8           8
                 9           9
                10          10
                11          11
                12          12
                13          13
                14          14
                15          15
                16          16
                17          17
                18          18
                19          19
                20          20
                21          21
                22          22
                23          23
                24          24
                25          25
                26          26
                27          27
                28          28
                29          29
                30          30
                31          31
                32          32
                33          33
                34          34
                35          35
                36          36
                37          37
                38          38
                39          39
                40          40
                41          41
                42          42
                43          43
                44          44
                45          45
                46          46
                47          47
                48          48
                49          49
                50          50
                51          51
                52          52
                53          53
                54          54
                55          55
                56          56
                57          57
                58          58
                59          59
                60          60
                61          61
                62          62
                63          63
                64          64

----------------------------------------------------------------------------------------

 
 
 KPOINTS: K-Points                                

Automatic generation of k-mesh.
 Grid dimensions read from file:
 generate k-points for:    2    2    2

 Generating k-lattice:

  Cartesian coordinates                     Fractional coordinates (reciprocal lattice)
     0.045740411  0.000040024  0.000035300     0.500000000  0.000000000  0.000000000
     0.000000000  0.045749987 -0.000007163     0.000000000  0.500000000  0.000000000
     0.000000000  0.000000000  0.045747277     0.000000000  0.000000000  0.500000000

  Length of vectors
     0.045740443  0.045749987  0.045747277

  Shift w.r.t. Gamma in fractional coordinates (k-lattice)
     0.500000000  0.500000000  0.500000000

 
 Subroutine IBZKPT returns following result:
 ===========================================
 
 Found      4 irreducible k-points:
 
 Following reciprocal coordinates:
            Coordinates               Weight
  0.250000  0.250000  0.250000      2.000000
 -0.250000  0.250000  0.250000      2.000000
  0.250000 -0.250000  0.250000      2.000000
 -0.250000 -0.250000  0.250000      2.000000
 
 Following cartesian coordinates:
            Coordinates               Weight
  0.022870  0.022895  0.022888      2.000000
 -0.022870  0.022855  0.022852      2.000000
  0.022870 -0.022855  0.022895      2.000000
 -0.022870 -0.022895  0.022860      2.000000
 


--------------------------------------------------------------------------------------------------------




 Dimension of arrays:
   k-points           NKPTS =      4   k-points in BZ     NKDIM =      4   number of bands    NBANDS=    161
   number of dos      NEDOS =    301   number of ions     NIONS =     64
   non local maximal  LDIM  =      4   non local SUM 2l+1 LMDIM =      8
   total plane-waves  NPLWV =  74088
   max r-space proj   IRMAX =    937   max aug-charges    IRDMAX=   2096
   dimension x,y,z NGX =    42 NGY =   42 NGZ =   42
   dimension x,y,z NGXF=    84 NGYF=   84 NGZF=   84
   support grid    NGXF=    84 NGYF=   84 NGZF=   84
   ions per type =              64
   NGX,Y,Z   is equivalent  to a cutoff of   6.39,  6.39,  6.39 a.u.
   NGXF,Y,Z  is equivalent  to a cutoff of  12.77, 12.78, 12.78 a.u.

 SYSTEM =  unknown system                          
 POSCAR =  Si                                      

 Startparameter for this run:
   NWRITE =      2    write-flag & timer
   PREC   = normal    normal or accurate (medium, high low for compatibility)
   ISTART =      1    job   : 0-new  1-cont  2-samecut
   ICHARG =      1    charge: 1-file 2-atom 10-const
   ISPIN  =      1    spin polarized calculation?
   LNONCOLLINEAR =      F non collinear calculations
   LSORBIT =      F    spin-orbit coupling
   INIWAV =      1    electr: 0-lowe 1-rand  2-diag
   LASPH  =      F    aspherical Exc in radial PAW
 Electronic Relaxation 1
   ENCUT  =  250.0 eV  18.37 Ry    4.29 a.u.  14.09 14.09 14.09*2*pi/ulx,y,z
   ENINI  =  250.0     initial cutoff
   ENAUG  =  322.1 eV  augmentation charge cutoff
   NELM   =     60;   NELMIN=  2; NELMDL=  0     # of ELM steps 
   EDIFF  = 0.1E-03   stopping-criterion for ELM
   LREAL  =      T    real-space projection
   NLSPLINE    = F    spline interpolate recip. space projectors
   LCOMPAT=      F    compatible to vasp.4.4
   GGA_COMPAT  = T    GGA compatible to vasp.4.4-vasp.4.6
   LMAXPAW     = -100 max onsite density
   LMAXMIX     =    2 max onsite mixed and CHGCAR
   VOSKOWN=      0    Vosko Wilk Nusair interpolation
   ROPT   =   -0.00050
 Ionic relaxation
   EDIFFG = 0.1E-02   stopping-criterion for IOM
   NSW    =      0    number of steps for IOM
   NBLOCK =      1;   KBLOCK =      1    inner block; outer block 
   IBRION =     -1    ionic relax: 0-MD 1-quasi-New 2-CG
   NFREE  =      0    steps in history (QN), initial steepest desc. (CG)
   ISIF   =      2    stress and relaxation
   IWAVPR =     10    prediction:  0-non 1-charg 2-wave 3-comb
   ISYM   =      2    0-nonsym 1-usesym 2-fastsym
   LCORR  =      T    Harris-Foulkes like correction to forces

   POTIM  = 0.5000    time-step for ionic-motion
   TEIN   =    0.0    initial temperature
   TEBEG  =    0.0;   TEEND  =   0.0 temperature during run
   SMASS  =  -3.00    Nose mass-parameter (am)
   estimated Nose-frequenzy (Omega)   =  0.10E-29 period in steps = 0.13E+47 mass=  -0.273E-26a.u.
   SCALEE = 1.0000    scale energy and forces
   NPACO  =    256;   APACO  = 10.0  distance and # of slots for P.C.
   PSTRESS=    0.0 pullay stress

  Mass of Ions in am
   POMASS =  28.09
  Ionic Valenz
   ZVAL   =   4.00
  Atomic Wigner-Seitz radii
   RWIGS  =  -1.00
  virtual crystal weights 
   VCA    =   1.00
   NELECT =     256.0000    total number of electrons
   NUPDOWN=      -1.0000    fix difference up-down

 DOS related values:
   EMIN   =  10.00;   EMAX   =-10.00  energy-range for DOS
   EFERMI =   0.00;   METHOD = LEGACY      
   ISMEAR =     0;   SIGMA  =   0.10  broadening in eV -4-tet -1-fermi 0-gaus

 Electronic relaxation 2 (details)
   IALGO  =     68    algorithm
   LDIAG  =      T    sub-space diagonalisation (order eigenvalues)
   LSUBROT=      F    optimize rotation matrix (better conditioning)
   TURBO    =      0    0=normal 1=particle mesh
   IRESTART =      0    0=no restart 2=restart with 2 vectors
   NREBOOT  =      0    no. of reboots
   NMIN     =      0    reboot dimension
   EREF     =   0.00    reference energy to select bands
   IMIX   =      4    mixing-type and parameters
     AMIX     =   0.40;   BMIX     =  1.00
     AMIX_MAG =   1.60;   BMIX_MAG =  1.00
     AMIN     =   0.10
     WC   =   100.;   INIMIX=   1;  MIXPRE=   1;  MAXMIX= -45

 Intra band minimization:
   WEIMIN = 0.0000     energy-eigenvalue tresh-hold
   EBREAK =  0.16E-06  absolut break condition
   DEPER  =   0.30     relativ break condition  

   TIME   =   0.40     timestep for ELM

  volume/ion in A,a.u.               =      20.40       137.68
  Fermi-wavevector in a.u.,A,eV,Ry     =   0.951050  1.797225 12.306429  0.904497
  Thomas-Fermi vector in A             =   2.079484
 
 Write flags
   LWAVE        =      T    write WAVECAR
   LDOWNSAMPLE  =      F    k-point downsampling of WAVECAR
   LCHARG       =      T    write CHGCAR
   LVTOT        =      F    write LOCPOT, total local potential
   LVHAR        =      F    write LOCPOT, Hartree potential only
   LELF         =      F    write electronic localiz. function (ELF)
   LORBIT       =      0    0 simple, 1 ext, 2 COOP (PROOUT), +10 PAW based schemes


 Dipole corrections
   LMONO  =      F    monopole corrections only (constant potential shift)
   LDIPOL =      F    correct potential (dipole corrections)
   IDIPOL =      0    1-x, 2-y, 3-z, 4-all directions 
   EPSILON=  1.0000000 bulk dielectric constant

 Exchange correlation treatment:
   GGA     =    --    GGA type
   LEXCH   =     8    internal setting for exchange type
   LIBXC   =     F    Libxc                    
   VOSKOWN =     0    Vosko Wilk Nusair interpolation
   LHFCALC =     F    Hartree Fock is set to
   LHFONE  =     F    Hartree Fock one center treatment
   AEXX    =    0.0000 exact exchange contribution

 Linear response parameters
   LEPSILON=     F    determine dielectric tensor
   LRPA    =     F    only Hartree local field effects (RPA)
   LNABLA  =     F    use nabla operator in PAW spheres
   LVEL    =     F    velocity operator in full k-point grid
   CSHIFT  =0.1000    complex shift for real part using Kramers Kronig
   OMEGAMAX=  -1.0    maximum frequency
   DEG_THRESHOLD= 0.2000000E-02 threshold for treating states as degnerate
   RTIME   =   -0.100 relaxation time in fs
  (WPLASMAI=    0.000 imaginary part of plasma frequency in eV, 0.658/RTIME)
   DFIELD  = 0.0000000 0.0000000 0.0000000 field for delta impulse in time
 
  Optional k-point grid parameters
   LKPOINTS_OPT  =     F    use optional k-point grid
   KPOINTS_OPT_MODE=     1    mode for optional k-point grid
 
 Orbital magnetization related:
   ORBITALMAG=     F  switch on orbital magnetization
   LCHIMAG   =     F  perturbation theory with respect to B field
   DQ        =  0.001000  dq finite difference perturbation B field
   LLRAUG    =     F  two centre corrections for induced B field
   LBONE     =     F  B-component reconstruction in AE one-centre
   LVGVCALC  =     T  calculate vGv susceptibility
   LVGVAPPL  =     F  apply vGv susceptibility instead of pGv for G=0

 Random number generation:
   RANDOM_GENERATOR = DEFAULT
   PCG_SEED         = not used


--------------------------------------------------------------------------------------------------------


 Static calculation
 charge density and potential will be updated during run
 non-spin polarized calculation
 RMM-DIIS sequential band-by-band and
  variant of blocked Davidson during initial phase
 perform sub-space diagonalisation
    before iterative eigenvector-optimisation
 modified Broyden-mixing scheme, WC =      100.0
 initial mixing is a Kerker type mixing with AMIX =  0.4000 and BMIX =      1.0000
 Hartree-type preconditioning will be used
 using additional bands           33
 real space projection scheme for non local part
 use partial core corrections
 calculate Harris-corrections to forces 
   (improved forces if not selfconsistent)
 use gradient corrections 
 use of overlap-Matrix (Vanderbilt PP)
 Gauss-broadening in eV      SIGMA  =   0.10


--------------------------------------------------------------------------------------------------------


  energy-cutoff  :      250.00
  volume of cell :     1305.73
      direct lattice vectors                 reciprocal lattice vectors
    10.931252780  0.000000000  0.000000000     0.091480823  0.000080048  0.000070600
    -0.009563070 10.928964940  0.000000000     0.000000000  0.091499973 -0.000014325
    -0.008436380  0.001711150 10.929612310     0.000000000  0.000000000  0.091494554

  length of vectors
    10.931252780 10.928969124 10.929615700     0.091480885  0.091499974  0.091494554


 
 old parameters found on file WAVECAR:
  energy-cutoff  :      250.00
  volume of cell :     1306.60
      direct lattice vectors                 reciprocal lattice vectors
    10.933640900  0.000000000  0.000000000     0.091460842  0.000078596  0.000069333
    -0.009393770 10.931435750  0.000000000     0.000000000  0.091479292 -0.000014210
    -0.008288600  0.001698090 10.931993670     0.000000000  0.000000000  0.091474623

  length of vectors

 
 k-points in units of 2pi/SCALE and weight: K-Points                                
   0.02287021  0.02289501  0.02288771       0.250
  -0.02287021  0.02285498  0.02285241       0.250
   0.02287021 -0.02285498  0.02289487       0.250
  -0.02287021 -0.02289501  0.02285957       0.250
 
 k-points in reciprocal lattice and weights: K-Points                                
   0.25000000  0.25000000  0.25000000       0.250
  -0.25000000  0.25000000  0.25000000       0.250
   0.25000000 -0.25000000  0.25000000       0.250
  -0.25000000 -0.25000000  0.25000000       0.250
 
 position of ions in fractional coordinates (direct lattice) 
   0.00225063  0.99170031  0.99439857
   0.25353025  0.24964075  0.00096554
   0.24539346  0.00705334  0.25386879
   0.01068317  0.24117266  0.25224167
   0.12352709  0.12574844  0.11448716
   0.38995901  0.37512586  0.12436759
   0.36923057  0.13217771  0.38258973
   0.13026329  0.38102098  0.38333750
   0.99817769  0.00186314  0.51167592
   0.24734671  0.25335460  0.51024885
   0.24591114  0.00056760  0.74797525
   0.98175946  0.25066290  0.76296030
   0.11157992  0.12772570  0.63453068
   0.37634095  0.38371062  0.62661608
   0.37245404  0.11998985  0.87761590
   0.12033423  0.37688990  0.87839020
   0.99887293  0.49819048  0.00690091
   0.24969321  0.75558099  0.00220507
   0.26439381  0.50148741  0.24773500
   0.00904039  0.75090212  0.25695462
   0.12704085  0.62073077  0.12594409
   0.37077578  0.88278565  0.13004762
   0.38293636  0.62779493  0.37159119
   0.13167172  0.87354652  0.38066823
   0.00178092  0.50375997  0.49963338
   0.26224040  0.75361123  0.50263778
   0.24509557  0.49623527  0.75216746
   0.99738185  0.74787914  0.75082206
   0.13061692  0.62434098  0.61475385
   0.38037433  0.87805201  0.62910139
   0.36823647  0.62643099  0.87581284
   0.12646978  0.87138288  0.87275172
   0.49641540  0.00196778  0.00116911
   0.73796383  0.24882099  0.00873252
   0.74977517  0.00522764  0.24921587
   0.50361323  0.24895421  0.26219190
   0.61257599  0.12062299  0.13365305
   0.88154497  0.36445555  0.12376226
   0.88237570  0.12055342  0.37449651
   0.63884985  0.38270222  0.38339305
   0.50607027  0.00401997  0.49103965
   0.76059845  0.25255759  0.50094655
   0.74020702  0.00531990  0.74804775
   0.50159541  0.24590948  0.74745482
   0.62146258  0.12888775  0.61105248
   0.87585630  0.37993623  0.63003523
   0.86190322  0.12226949  0.88009356
   0.62580672  0.37491801  0.86937284
   0.51055331  0.49865141  0.99851069
   0.75634367  0.75722361  0.00664374
   0.75712761  0.50184055  0.24489785
   0.50471043  0.76433637  0.24400437
   0.63143662  0.62825078  0.11893629
   0.88837974  0.87000554  0.13055602
   0.87576121  0.62529501  0.37568927
   0.63072622  0.87424418  0.37086276
   0.51238521  0.50423571  0.50072359
   0.76326229  0.76111859  0.50250129
   0.74381585  0.51208007  0.75059500
   0.49742037  0.74906749  0.75621010
   0.62710267  0.64130074  0.63043361
   0.87519919  0.88036215  0.63548921
   0.88024022  0.63020186  0.87742181
   0.63307656  0.87957941  0.88001825
 
 position of ions in cartesian coordinates  (Angst):
   0.00672942 10.83995949 10.86839089
   2.76900782  2.72831669  0.01055303
   2.68024871  0.07752006  2.77468749
   0.11234607  2.63619919  2.75690363
   1.34813750  1.37449618  1.25130027
   4.25810397  4.09995014  1.35928949
   4.03166098  1.44522025  4.18155739
   1.41706321  4.16482092  4.18973031
  10.90699811  0.02123770  5.59241943
   2.69708193  2.76977668  5.57682214
   2.68180122  0.00748314  8.17507954
  10.72302711  2.74079164  8.33886031
   1.21313370  1.39699546  6.93517438
   4.10492218  4.19463219  6.84867081
   4.06283785  1.31286665  9.59200159
   1.30438928  4.12051961  9.60046434
  10.91411002  5.44471811  0.07542424
   2.72221531  8.25772187  0.02410052
   2.88326978  5.48116218  2.70764754
   0.08947411  8.20702266  2.80841441
   1.38171702  6.78416038  1.37652005
   4.04350448  9.64815591  1.42137002
   4.17683560  6.86178459  4.06134766
   1.42777163  9.54761068  4.16055615
   0.01043511  5.50642998  5.46079917
   2.85516885  8.23705079  5.49363611
   2.66811049  5.42462493  8.22089872
  10.88914686  8.17482962  8.20619399
   1.41664968  6.82445264  6.71902128
   4.14426370  9.59727611  6.87583429
   4.01190661  6.84774098  9.57229485
   1.36677716  9.52480640  9.53883795
   5.42641352  0.02150781  0.01277796
   8.06441604  2.71937087  0.09544311
   8.19382946  0.05755918  2.72383287
   5.50053084  2.72126052  2.86565585
   6.69394189  1.31851310  1.46077601
   9.63186145  3.98333367  1.35267354
   9.64115953  1.31816489  4.09310172
   6.97653491  4.18319522  4.19033744
   5.52780106  0.04477431  5.36687296
   8.30765254  2.76105021  5.47515162
   8.08502836  0.05942103  8.17587189
   5.47440873  2.68881512  8.16939142
   6.78697687  1.40965527  6.67856673
   9.56525799  4.15338785  6.88604079
   9.41308794  1.33778494  9.61908137
   6.82993169  4.09895337  9.50190809
   5.56779482  5.45145241 10.91333476
   8.26048643  8.27568162  0.07261350
   8.26948806  5.48501679  2.67663859
   5.50774936  8.35382288  2.66687312
   6.89538196  6.86633431  1.29992758
   9.70168218  9.50848340  1.42692667
   9.56401794  6.83447010  4.10613807
   6.88313852  9.55521854  4.05338615
   5.59196589  5.51163123  5.47271470
   8.33189511  8.31909819  5.49214424
   8.11960977  5.59778946  8.20371230
   5.42388473  8.18782633  8.26508319
   6.84356642  7.00983211  6.89039496
   9.55324341  9.62253445  6.94565065
   9.60869940  6.88895546  9.58988026
   6.90448421  9.61439833  9.61825826
 


--------------------------------------------------------------------------------------------------------


 k-point   1 :   0.2500 0.2500 0.2500  plane waves:   11718
 k-point   2 :  -0.2500 0.2500 0.2500  plane waves:   11723
 k-point   3 :   0.2500-0.2500 0.2500  plane waves:   11716
 k-point   4 :  -0.2500-0.2500 0.2500  plane waves:   11718

 maximum and minimum number of plane-waves per node :       434      401

 maximum number of plane-waves:     11723
 maximum index in each direction: 
   IXMAX=   14   IYMAX=   14   IZMAX=   13
   IXMIN=  -14   IYMIN=  -14   IZMIN=  -14


 real space projection operators:
  total allocation   :       3441.69 KBytes
  max/ min on nodes  :        170.75         75.56


 parallel 3D FFT for wavefunctions:
    minimum data exchange during FFTs selected (reduces bandwidth)
 parallel 3D FFT for charge:
    minimum data exchange during FFTs selected (reduces bandwidth)


 total amount of memory used by VASP MPI-rank0    37850. kBytes
=======================================================================

   base      :      30000. kBytes
   nonlr-proj:       1190. kBytes
   fftplans  :        841. kBytes
   grid      :       1174. kBytes
   one-center:          9. kBytes
   wavefun   :       4636. kBytes
 
     INWAV:  cpu time     19.0337: real time     19.0768
 Broyden mixing: mesh for mixing (old mesh)
   NGX = 29   NGY = 29   NGZ = 29
  (NGX  = 84   NGY  = 84   NGZ  = 84)
  gives a total of  24389 points

 initial charge density was supplied:
 number of electron     256.0000122 magnetization 
 keeping initial charge density in first step


--------------------------------------------------------------------------------------------------------


 Maximum index for non-local projection operator          112
 Maximum index for augmentation-charges          184 (set IRDMAX)


--------------------------------------------------------------------------------------------------------


 First call to EWALD:  gamma=   0.162
 Maximum number of real-space cells 3x 3x 3
 Maximum number of reciprocal cells 3x 3x 3

    FEWALD:  cpu time      0.0591: real time      0.0592


--------------------------------------- Ionic step        1  -------------------------------------------




--------------------------------------- Iteration      1(   1)  ---------------------------------------


    POTLOK:  cpu time      0.6193: real time      0.6211
    SETDIJ:  cpu time      0.0212: real time      0.0213
     EDDAV:  cpu time     49.1163: real time     49.2271
       DOS:  cpu time      0.0775: real time      0.0777
    CHARGE:  cpu time      2.0283: real time      2.0329
    MIXING:  cpu time      0.0809: real time      0.0811
    --------------------------------------------
      LOOP:  cpu time     51.9436: real time     52.0612

 eigenvalue-minimisations  :  1408
 total energy-change (2. order) :-0.3446168E+03  (-0.5295322E-01)
 number of electron     256.0000120 magnetization 
 augmentation part      -14.6463404 magnetization 

 Broyden mixing:
  rms(total) = 0.42685E-01    rms(broyden)= 0.42683E-01
  rms(prec ) = 0.44925E-01
  weight for this iteration     100.00

 Free energy of the ion-electron system (eV)
  ---------------------------------------------------
  alpha Z        PSCENC =       105.59922366
  Ewald energy   TEWEN  =     -7265.56071770
  -Hartree energ DENC   =      -485.54895811
  -exchange      EXHF   =         0.00000000
  -V(xc)+E(xc)   XCENC  =      -577.62254552
  PAW double counting   =     30822.99963027   -29703.80384783
  entropy T*S    EENTRO =        -0.00000000
  eigenvalues    EBANDS =       163.36844264
  atomic energy  EATOM  =      6595.95197522
  Solvation  Ediel_sol  =         0.00000000
  ---------------------------------------------------
  free energy    TOTEN  =      -344.61679737 eV

  energy without entropy =     -344.61679737  energy(sigma->0) =     -344.61679737


--------------------------------------------------------------------------------------------------------




--------------------------------------- Iteration      1(   2)  ---------------------------------------


    POTLOK:  cpu time      0.2466: real time      0.2491
    SETDIJ:  cpu time      0.1194: real time      0.1197
    EDDIAG:  cpu time      3.1716: real time      3.1789
  RMM-DIIS:  cpu time     22.2290: real time     22.2790
    ORTHCH:  cpu time      0.2418: real time      0.2424
       DOS:  cpu time      0.0014: real time      0.0014
    CHARGE:  cpu time      1.1422: real time      1.1448
    MIXING:  cpu time      0.0004: real time      0.0004
    --------------------------------------------
      LOOP:  cpu time     27.1524: real time     27.2156

 eigenvalue-minimisations  :  1300
 total energy-change (2. order) :-0.2684428E-02  (-0.3077202E-02)
 number of electron     256.0000120 magnetization 
 augmentation part      -14.6454832 magnetization 

 Broyden mixing:
  rms(total) = 0.15482E-01    rms(broyden)= 0.15481E-01
  rms(prec ) = 0.18407E-01
  weight for this iteration     100.00

 eigenvalues of (default mixing * dielectric matrix)
  average eigenvalue GAMMA=   1.3363
  1.3363

 Free energy of the ion-electron system (eV)
  ---------------------------------------------------
  alpha Z        PSCENC =       105.59922366
  Ewald energy   TEWEN  =     -7265.56071770
  -Hartree energ DENC   =      -485.40743109
  -exchange      EXHF   =         0.00000000
  -V(xc)+E(xc)   XCENC  =      -577.62530519
  PAW double counting   =     30853.71297429   -29734.52494512
  entropy T*S    EENTRO =        -0.00000000
  eigenvalues    EBANDS =       163.23474414
  atomic energy  EATOM  =      6595.95197522
  Solvation  Ediel_sol  =         0.00000000
  ---------------------------------------------------
  free energy    TOTEN  =      -344.61948180 eV

  energy without entropy =     -344.61948180  energy(sigma->0) =     -344.61948180


--------------------------------------------------------------------------------------------------------




--------------------------------------- Iteration      1(   3)  ---------------------------------------


    POTLOK:  cpu time      0.0462: real time      0.0475
    SETDIJ:  cpu time      0.0019: real time      0.0019
    EDDIAG:  cpu time      5.9863: real time      6.0000
  RMM-DIIS:  cpu time     28.6692: real time     28.7334
    ORTHCH:  cpu time      0.4318: real time      0.4328
       DOS:  cpu time      0.1564: real time      0.1568
    CHARGE:  cpu time      2.6400: real time      2.6460
    MIXING:  cpu time      0.0421: real time      0.0422
    --------------------------------------------
      LOOP:  cpu time     37.9740: real time     38.0605

 eigenvalue-minimisations  :  1498
 total energy-change (2. order) :-0.2361855E-03  (-0.4963039E-03)
 number of electron     256.0000121 magnetization 
 augmentation part      -14.6460285 magnetization 

 Broyden mixing:
  rms(total) = 0.67332E-02    rms(broyden)= 0.67326E-02
  rms(prec ) = 0.80181E-02
  weight for this iteration     100.00

 eigenvalues of (default mixing * dielectric matrix)
  average eigenvalue GAMMA=   1.6207
  1.6207  1.6207

 Free energy of the ion-electron system (eV)
  ---------------------------------------------------
  alpha Z        PSCENC =       105.59922366
  Ewald energy   TEWEN  =     -7265.56071770
  -Hartree energ DENC   =      -485.27668598
  -exchange      EXHF   =         0.00000000
  -V(xc)+E(xc)   XCENC  =      -577.62840469
  PAW double counting   =     30876.25473247   -29757.07273512
  entropy T*S    EENTRO =        -0.00000000
  eigenvalues    EBANDS =       163.11289417
  atomic energy  EATOM  =      6595.95197522
  Solvation  Ediel_sol  =         0.00000000
  ---------------------------------------------------
  free energy    TOTEN  =      -344.61971798 eV

  energy without entropy =     -344.61971798  energy(sigma->0) =     -344.61971798


--------------------------------------------------------------------------------------------------------




--------------------------------------- Iteration      1(   4)  ---------------------------------------


    POTLOK:  cpu time      0.3973: real time      0.3982
    SETDIJ:  cpu time      0.0373: real time      0.0374
    EDDIAG:  cpu time      7.6830: real time      7.6998
  RMM-DIIS:  cpu time     25.2737: real time     25.3312
    ORTHCH:  cpu time      0.5129: real time      0.5140
       DOS:  cpu time      0.1207: real time      0.1210
    --------------------------------------------
      LOOP:  cpu time     34.0249: real time     34.1017

 eigenvalue-minimisations  :  1557
 total energy-change (2. order) :-0.6525588E-04  (-0.9614452E-04)
 number of electron     256.0000121 magnetization 
 augmentation part      -14.6460285 magnetization 

 Free energy of the ion-electron system (eV)
  ---------------------------------------------------
  alpha Z        PSCENC =       105.59922366
  Ewald energy   TEWEN  =     -7265.56071770
  -Hartree energ DENC   =      -485.21644933
  -exchange      EXHF   =         0.00000000
  -V(xc)+E(xc)   XCENC  =      -577.62783622
  PAW double counting   =     30884.00582081   -29764.82910930
  entropy T*S    EENTRO =        -0.00000000
  eigenvalues    EBANDS =       163.05730962
  atomic energy  EATOM  =      6595.95197522
  Solvation  Ediel_sol  =         0.00000000
  ---------------------------------------------------
  free energy    TOTEN  =      -344.61978324 eV

  energy without entropy =     -344.61978324  energy(sigma->0) =     -344.61978324


--------------------------------------------------------------------------------------------------------




 average (electrostatic) potential at core
  the test charge radii are     0.9892
  (the norm of the test charge is              1.0000)
       1 -83.5060       2 -83.4953       3 -83.4695       4 -83.4792       5 -83.4553
       6 -83.4676       7 -83.4751       8 -83.4777       9 -83.4677      10 -83.4474
      11 -83.4769      12 -83.4813      13 -83.5039      14 -83.4455      15 -83.4707
      16 -83.4731      17 -83.4763      18 -83.4818      19 -83.4502      20 -83.4515
      21 -83.4644      22 -83.4691      23 -83.4172      24 -83.4964      25 -83.4570
      26 -83.4531      27 -83.4786      28 -83.4746      29 -83.4791      30 -83.4919
      31 -83.4960      32 -83.4043      33 -83.4526      34 -83.4965      35 -83.4603
      36 -83.4460      37 -83.4799      38 -83.5060      39 -83.4892      40 -83.4641
      41 -83.4903      42 -83.4360      43 -83.4698      44 -83.4785      45 -83.4975
      46 -83.4688      47 -83.4799      48 -83.4549      49 -83.4602      50 -83.4400
      51 -83.5042      52 -83.4767      53 -83.5101      54 -83.4665      55 -83.4865
      56 -83.4737      57 -83.4917      58 -83.5543      59 -83.4494      60 -83.4700
      61 -83.4346      62 -83.4626      63 -83.4430      64 -83.5371
 
 
 
 E-fermi :   5.9207     XC(G=0):  -9.3411     alpha+bet :-11.7559

 Fermi energy:         5.9207406371

 k-point     1 :       0.2500    0.2500    0.2500
  band No.  band energies     occupation 
      1      -6.0069      2.00000
      2      -5.5171      2.00000
      3      -5.4662      2.00000
      4      -5.4494      2.00000
      5      -5.0045      2.00000
      6      -4.9625      2.00000
      7      -4.9494      2.00000
      8      -4.5429      2.00000
      9      -4.4866      2.00000
     10      -4.4299      2.00000
     11      -4.4083      2.00000
     12      -4.0837      2.00000
     13      -4.0691      2.00000
     14      -4.0412      2.00000
     15      -4.0290      2.00000
     16      -3.9998      2.00000
     17      -3.9769      2.00000
     18      -3.8499      2.00000
     19      -3.8027      2.00000
     20      -3.7766      2.00000
     21      -3.3667      2.00000
     22      -3.3074      2.00000
     23      -3.2785      2.00000
     24      -3.0114      2.00000
     25      -2.9805      2.00000
     26      -2.9470      2.00000
     27      -2.8312      2.00000
     28      -2.8091      2.00000
     29      -2.7763      2.00000
     30      -2.7565      2.00000
     31      -2.7398      2.00000
     32      -2.7130      2.00000
     33      -1.3323      2.00000
     34      -1.3016      2.00000
     35      -1.2765      2.00000
     36      -1.2581      2.00000
     37      -1.2188      2.00000
     38      -1.2093      2.00000
     39      -1.1766      2.00000
     40      -1.1403      2.00000
     41      -1.1113      2.00000
     42      -1.0461      2.00000
     43      -1.0275      2.00000
     44      -0.9849      2.00000
     45      -0.9661      2.00000
     46      -0.9182      2.00000
     47      -0.8553      2.00000
     48      -0.2578      2.00000
     49      -0.1925      2.00000
     50      -0.1752      2.00000
     51      -0.1529      2.00000
     52      -0.1269      2.00000
     53      -0.1132      2.00000
     54      -0.0587      2.00000
     55       0.6696      2.00000
     56       0.6999      2.00000
     57       0.7749      2.00000
     58       1.0191      2.00000
     59       1.0520      2.00000
     60       1.0782      2.00000
     61       1.6131      2.00000
     62       1.6188      2.00000
     63       1.6443      2.00000
     64       1.6557      2.00000
     65       1.6664      2.00000
     66       1.6855      2.00000
     67       1.7131      2.00000
     68       1.7431      2.00000
     69       1.7733      2.00000
     70       2.2149      2.00000
     71       2.2378      2.00000
     72       2.2547      2.00000
     73       2.3125      2.00000
     74       2.3362      2.00000
     75       2.3524      2.00000
     76       2.3752      2.00000
     77       2.4007      2.00000
     78       2.4170      2.00000
     79       2.4646      2.00000
     80       2.4875      2.00000
     81       2.5110      2.00000
     82       2.7162      2.00000
     83       2.7272      2.00000
     84       2.7442      2.00000
     85       2.7515      2.00000
     86       2.7659      2.00000
     87       2.8000      2.00000
     88       2.9867      2.00000
     89       3.0065      2.00000
     90       3.0158      2.00000
     91       3.0274      2.00000
     92       3.0514      2.00000
     93       3.0662      2.00000
     94       3.3134      2.00000
     95       3.3313      2.00000
     96       3.3445      2.00000
     97       3.3731      2.00000
     98       3.4140      2.00000
     99       3.4331      2.00000
    100       3.4779      2.00000
    101       3.4931      2.00000
    102       3.4998      2.00000
    103       3.6757      2.00000
    104       3.7051      2.00000
    105       3.7333      2.00000
    106       3.7484      2.00000
    107       3.7715      2.00000
    108       3.8019      2.00000
    109       3.8161      2.00000
    110       3.8405      2.00000
    111       3.8562      2.00000
    112       4.0452      2.00000
    113       4.1405      2.00000
    114       4.1469      2.00000
    115       4.1964      2.00000
    116       4.3483      2.00000
    117       4.3582      2.00000
    118       4.3780      2.00000
    119       4.3936      2.00000
    120       4.4266      2.00000
    121       4.4864      2.00000
    122       4.5712      2.00000
    123       4.6161      2.00000
    124       4.8973      2.00000
    125       4.9404      2.00000
    126       4.9859      2.00000
    127       5.3910      2.00000
    128       5.4192      2.00000
    129       6.5393      0.00000
    130       6.5510      0.00000
    131       6.5837      0.00000
    132       6.9598      0.00000
    133       7.0021      0.00000
    134       7.0266      0.00000
    135       7.2038      0.00000
    136       7.4299      0.00000
    137       7.4673      0.00000
    138       7.4895      0.00000
    139       7.5527      0.00000
    140       7.5826      0.00000
    141       7.6150      0.00000
    142       7.7081      0.00000
    143       7.7383      0.00000
    144       7.7656      0.00000
    145       7.7916      0.00000
    146       7.8077      0.00000
    147       7.8329      0.00000
    148       7.9575      0.00000
    149       7.9806      0.00000
    150       8.0054      0.00000
    151       8.0379      0.00000
    152       8.0538      0.00000
    153       8.0672      0.00000
    154       8.1056      0.00000
    155       8.2426      0.00000
    156       8.2847      0.00000
    157       8.3077      0.00000
    158       8.3768      0.00000
    159       8.3998      0.00000
    160       8.4453      0.00000
    161       8.4933      0.00000

 k-point     2 :      -0.2500    0.2500    0.2500
  band No.  band energies     occupation 
      1      -6.0088      2.00000
      2      -5.4978      2.00000
      3      -5.4736      2.00000
      4      -5.4534      2.00000
      5      -5.0015      2.00000
      6      -4.9717      2.00000
      7      -4.9544      2.00000
      8      -4.5637      2.00000
      9      -4.4640      2.00000
     10      -4.4468      2.00000
     11      -4.4116      2.00000
     12      -4.0871      2.00000
     13      -4.0589      2.00000
     14      -4.0426      2.00000
     15      -4.0086      2.00000
     16      -3.9821      2.00000
     17      -3.9545      2.00000
     18      -3.8555      2.00000
     19      -3.7956      2.00000
     20      -3.7844      2.00000
     21      -3.3769      2.00000
     22      -3.3383      2.00000
     23      -3.3168      2.00000
     24      -3.0120      2.00000
     25      -2.9713      2.00000
     26      -2.9135      2.00000
     27      -2.8257      2.00000
     28      -2.8116      2.00000
     29      -2.7769      2.00000
     30      -2.7668      2.00000
     31      -2.7338      2.00000
     32      -2.7038      2.00000
     33      -1.3681      2.00000
     34      -1.3151      2.00000
     35      -1.2953      2.00000
     36      -1.2553      2.00000
     37      -1.2248      2.00000
     38      -1.2076      2.00000
     39      -1.1960      2.00000
     40      -1.1213      2.00000
     41      -1.1042      2.00000
     42      -1.0340      2.00000
     43      -1.0120      2.00000
     44      -0.9806      2.00000
     45      -0.9492      2.00000
     46      -0.8997      2.00000
     47      -0.8304      2.00000
     48      -0.2598      2.00000
     49      -0.2227      2.00000
     50      -0.1931      2.00000
     51      -0.1739      2.00000
     52      -0.1338      2.00000
     53      -0.1114      2.00000
     54      -0.0401      2.00000
     55       0.6864      2.00000
     56       0.7575      2.00000
     57       0.7617      2.00000
     58       1.0227      2.00000
     59       1.0592      2.00000
     60       1.0716      2.00000
     61       1.6103      2.00000
     62       1.6248      2.00000
     63       1.6411      2.00000
     64       1.6556      2.00000
     65       1.6642      2.00000
     66       1.6837      2.00000
     67       1.7040      2.00000
     68       1.7353      2.00000
     69       1.7581      2.00000
     70       2.2288      2.00000
     71       2.2475      2.00000
     72       2.2788      2.00000
     73       2.2960      2.00000
     74       2.3131      2.00000
     75       2.3507      2.00000
     76       2.3704      2.00000
     77       2.3750      2.00000
     78       2.4011      2.00000
     79       2.4414      2.00000
     80       2.4637      2.00000
     81       2.5101      2.00000
     82       2.6985      2.00000
     83       2.7130      2.00000
     84       2.7466      2.00000
     85       2.7606      2.00000
     86       2.7869      2.00000
     87       2.8042      2.00000
     88       2.9824      2.00000
     89       2.9915      2.00000
     90       3.0048      2.00000
     91       3.0125      2.00000
     92       3.0310      2.00000
     93       3.0586      2.00000
     94       3.3259      2.00000
     95       3.3530      2.00000
     96       3.3683      2.00000
     97       3.4097      2.00000
     98       3.4229      2.00000
     99       3.4501      2.00000
    100       3.4740      2.00000
    101       3.4935      2.00000
    102       3.5126      2.00000
    103       3.7159      2.00000
    104       3.7290      2.00000
    105       3.7508      2.00000
    106       3.7667      2.00000
    107       3.7856      2.00000
    108       3.7931      2.00000
    109       3.8235      2.00000
    110       3.8404      2.00000
    111       3.8631      2.00000
    112       4.0514      2.00000
    113       4.1087      2.00000
    114       4.1299      2.00000
    115       4.1555      2.00000
    116       4.3141      2.00000
    117       4.3622      2.00000
    118       4.3968      2.00000
    119       4.4217      2.00000
    120       4.4985      2.00000
    121       4.5189      2.00000
    122       4.5696      2.00000
    123       4.5951      2.00000
    124       4.8696      2.00000
    125       4.9190      2.00000
    126       4.9559      2.00000
    127       5.3653      2.00000
    128       5.4038      2.00000
    129       6.5280      0.00000
    130       6.5424      0.00000
    131       6.5541      0.00000
    132       6.9484      0.00000
    133       7.0039      0.00000
    134       7.0510      0.00000
    135       7.2066      0.00000
    136       7.4139      0.00000
    137       7.4541      0.00000
    138       7.4890      0.00000
    139       7.5581      0.00000
    140       7.5791      0.00000
    141       7.6256      0.00000
    142       7.7116      0.00000
    143       7.7390      0.00000
    144       7.7529      0.00000
    145       7.7932      0.00000
    146       7.8018      0.00000
    147       7.8396      0.00000
    148       7.9774      0.00000
    149       8.0011      0.00000
    150       8.0213      0.00000
    151       8.0376      0.00000
    152       8.0537      0.00000
    153       8.0740      0.00000
    154       8.1116      0.00000
    155       8.2410      0.00000
    156       8.2861      0.00000
    157       8.3202      0.00000
    158       8.3835      0.00000
    159       8.4015      0.00000
    160       8.4365      0.00000
    161       8.4853      0.00000

 k-point     3 :       0.2500   -0.2500    0.2500
  band No.  band energies     occupation 
      1      -6.0075      2.00000
      2      -5.5130      2.00000
      3      -5.4737      2.00000
      4      -5.4437      2.00000
      5      -4.9990      2.00000
      6      -4.9699      2.00000
      7      -4.9469      2.00000
      8      -4.5540      2.00000
      9      -4.4721      2.00000
     10      -4.4435      2.00000
     11      -4.4138      2.00000
     12      -4.0839      2.00000
     13      -4.0702      2.00000
     14      -4.0517      2.00000
     15      -4.0362      2.00000
     16      -4.0032      2.00000
     17      -3.9546      2.00000
     18      -3.8265      2.00000
     19      -3.7868      2.00000
     20      -3.7664      2.00000
     21      -3.3712      2.00000
     22      -3.3247      2.00000
     23      -3.3091      2.00000
     24      -3.0241      2.00000
     25      -3.0061      2.00000
     26      -2.9227      2.00000
     27      -2.8321      2.00000
     28      -2.7968      2.00000
     29      -2.7744      2.00000
     30      -2.7534      2.00000
     31      -2.7302      2.00000
     32      -2.7011      2.00000
     33      -1.3516      2.00000
     34      -1.3092      2.00000
     35      -1.2883      2.00000
     36      -1.2683      2.00000
     37      -1.2455      2.00000
     38      -1.1986      2.00000
     39      -1.1779      2.00000
     40      -1.1549      2.00000
     41      -1.0805      2.00000
     42      -1.0235      2.00000
     43      -1.0085      2.00000
     44      -0.9812      2.00000
     45      -0.9437      2.00000
     46      -0.9113      2.00000
     47      -0.8757      2.00000
     48      -0.2418      2.00000
     49      -0.2347      2.00000
     50      -0.1706      2.00000
     51      -0.1528      2.00000
     52      -0.1219      2.00000
     53      -0.1022      2.00000
     54      -0.0867      2.00000
     55       0.6861      2.00000
     56       0.7354      2.00000
     57       0.7697      2.00000
     58       1.0333      2.00000
     59       1.0541      2.00000
     60       1.0758      2.00000
     61       1.6063      2.00000
     62       1.6305      2.00000
     63       1.6401      2.00000
     64       1.6498      2.00000
     65       1.6671      2.00000
     66       1.6793      2.00000
     67       1.7209      2.00000
     68       1.7434      2.00000
     69       1.7663      2.00000
     70       2.2200      2.00000
     71       2.2614      2.00000
     72       2.2712      2.00000
     73       2.2992      2.00000
     74       2.3204      2.00000
     75       2.3298      2.00000
     76       2.3671      2.00000
     77       2.3795      2.00000
     78       2.4212      2.00000
     79       2.4390      2.00000
     80       2.4636      2.00000
     81       2.4820      2.00000
     82       2.6950      2.00000
     83       2.7271      2.00000
     84       2.7410      2.00000
     85       2.7557      2.00000
     86       2.7744      2.00000
     87       2.7989      2.00000
     88       2.9884      2.00000
     89       3.0027      2.00000
     90       3.0142      2.00000
     91       3.0266      2.00000
     92       3.0321      2.00000
     93       3.0728      2.00000
     94       3.3221      2.00000
     95       3.3433      2.00000
     96       3.3587      2.00000
     97       3.3835      2.00000
     98       3.4032      2.00000
     99       3.4394      2.00000
    100       3.4752      2.00000
    101       3.5001      2.00000
    102       3.5135      2.00000
    103       3.7084      2.00000
    104       3.7218      2.00000
    105       3.7629      2.00000
    106       3.7708      2.00000
    107       3.7902      2.00000
    108       3.8086      2.00000
    109       3.8317      2.00000
    110       3.8328      2.00000
    111       3.8572      2.00000
    112       4.0460      2.00000
    113       4.1010      2.00000
    114       4.1360      2.00000
    115       4.1730      2.00000
    116       4.3388      2.00000
    117       4.3639      2.00000
    118       4.3873      2.00000
    119       4.4166      2.00000
    120       4.4653      2.00000
    121       4.5016      2.00000
    122       4.5931      2.00000
    123       4.6217      2.00000
    124       4.8768      2.00000
    125       4.9048      2.00000
    126       4.9438      2.00000
    127       5.3700      2.00000
    128       5.4169      2.00000
    129       6.5366      0.00000
    130       6.5547      0.00000
    131       6.5758      0.00000
    132       6.9405      0.00000
    133       6.9941      0.00000
    134       7.0342      0.00000
    135       7.2075      0.00000
    136       7.4389      0.00000
    137       7.4710      0.00000
    138       7.4972      0.00000
    139       7.5345      0.00000
    140       7.5755      0.00000
    141       7.6066      0.00000
    142       7.7121      0.00000
    143       7.7255      0.00000
    144       7.7653      0.00000
    145       7.7772      0.00000
    146       7.8068      0.00000
    147       7.8514      0.00000
    148       7.9240      0.00000
    149       7.9767      0.00000
    150       8.0082      0.00000
    151       8.0397      0.00000
    152       8.0456      0.00000
    153       8.0840      0.00000
    154       8.0962      0.00000
    155       8.2424      0.00000
    156       8.2818      0.00000
    157       8.3060      0.00000
    158       8.4018      0.00000
    159       8.4124      0.00000
    160       8.4604      0.00000
    161       8.4965      0.00000

 k-point     4 :      -0.2500   -0.2500    0.2500
  band No.  band energies     occupation 
      1      -6.0079      2.00000
      2      -5.4968      2.00000
      3      -5.4772      2.00000
      4      -5.4568      2.00000
      5      -4.9972      2.00000
      6      -4.9651      2.00000
      7      -4.9591      2.00000
      8      -4.5354      2.00000
      9      -4.4677      2.00000
     10      -4.4465      2.00000
     11      -4.4227      2.00000
     12      -4.0954      2.00000
     13      -4.0728      2.00000
     14      -4.0583      2.00000
     15      -4.0181      2.00000
     16      -3.9843      2.00000
     17      -3.9483      2.00000
     18      -3.8394      2.00000
     19      -3.8074      2.00000
     20      -3.7813      2.00000
     21      -3.3610      2.00000
     22      -3.3192      2.00000
     23      -3.3022      2.00000
     24      -3.0153      2.00000
     25      -2.9767      2.00000
     26      -2.9247      2.00000
     27      -2.8491      2.00000
     28      -2.7976      2.00000
     29      -2.7812      2.00000
     30      -2.7663      2.00000
     31      -2.7290      2.00000
     32      -2.7079      2.00000
     33      -1.3392      2.00000
     34      -1.3218      2.00000
     35      -1.2855      2.00000
     36      -1.2737      2.00000
     37      -1.2363      2.00000
     38      -1.2020      2.00000
     39      -1.1791      2.00000
     40      -1.1438      2.00000
     41      -1.0761      2.00000
     42      -1.0472      2.00000
     43      -1.0083      2.00000
     44      -0.9801      2.00000
     45      -0.9409      2.00000
     46      -0.9135      2.00000
     47      -0.8560      2.00000
     48      -0.2405      2.00000
     49      -0.2303      2.00000
     50      -0.1846      2.00000
     51      -0.1524      2.00000
     52      -0.1447      2.00000
     53      -0.0956      2.00000
     54      -0.0619      2.00000
     55       0.6978      2.00000
     56       0.7187      2.00000
     57       0.7527      2.00000
     58       1.0218      2.00000
     59       1.0466      2.00000
     60       1.0809      2.00000
     61       1.6020      2.00000
     62       1.6294      2.00000
     63       1.6484      2.00000
     64       1.6566      2.00000
     65       1.6620      2.00000
     66       1.6812      2.00000
     67       1.7199      2.00000
     68       1.7401      2.00000
     69       1.7580      2.00000
     70       2.2201      2.00000
     71       2.2477      2.00000
     72       2.2720      2.00000
     73       2.3192      2.00000
     74       2.3348      2.00000
     75       2.3436      2.00000
     76       2.3772      2.00000
     77       2.3821      2.00000
     78       2.4149      2.00000
     79       2.4538      2.00000
     80       2.4780      2.00000
     81       2.4925      2.00000
     82       2.7059      2.00000
     83       2.7244      2.00000
     84       2.7373      2.00000
     85       2.7528      2.00000
     86       2.7785      2.00000
     87       2.7933      2.00000
     88       2.9686      2.00000
     89       2.9897      2.00000
     90       3.0191      2.00000
     91       3.0266      2.00000
     92       3.0513      2.00000
     93       3.0675      2.00000
     94       3.3106      2.00000
     95       3.3426      2.00000
     96       3.3690      2.00000
     97       3.3903      2.00000
     98       3.4079      2.00000
     99       3.4347      2.00000
    100       3.4741      2.00000
    101       3.5100      2.00000
    102       3.5185      2.00000
    103       3.7018      2.00000
    104       3.7116      2.00000
    105       3.7454      2.00000
    106       3.7610      2.00000
    107       3.7730      2.00000
    108       3.7957      2.00000
    109       3.8131      2.00000
    110       3.8341      2.00000
    111       3.8586      2.00000
    112       4.0597      2.00000
    113       4.1109      2.00000
    114       4.1424      2.00000
    115       4.1584      2.00000
    116       4.3403      2.00000
    117       4.3634      2.00000
    118       4.3872      2.00000
    119       4.4084      2.00000
    120       4.4586      2.00000
    121       4.4928      2.00000
    122       4.5821      2.00000
    123       4.6207      2.00000
    124       4.8875      2.00000
    125       4.9171      2.00000
    126       4.9684      2.00000
    127       5.3674      2.00000
    128       5.4270      2.00000
    129       6.5270      0.00000
    130       6.5475      0.00000
    131       6.5714      0.00000
    132       6.9549      0.00000
    133       6.9963      0.00000
    134       7.0279      0.00000
    135       7.1959      0.00000
    136       7.4221      0.00000
    137       7.4667      0.00000
    138       7.4948      0.00000
    139       7.5532      0.00000
    140       7.5951      0.00000
    141       7.6105      0.00000
    142       7.7186      0.00000
    143       7.7379      0.00000
    144       7.7691      0.00000
    145       7.7823      0.00000
    146       7.8074      0.00000
    147       7.8420      0.00000
    148       7.9623      0.00000
    149       7.9902      0.00000
    150       8.0054      0.00000
    151       8.0171      0.00000
    152       8.0492      0.00000
    153       8.0814      0.00000
    154       8.1021      0.00000
    155       8.2673      0.00000
    156       8.2961      0.00000
    157       8.3063      0.00000
    158       8.3734      0.00000
    159       8.4072      0.00000
    160       8.4596      0.00000
    161       8.4809      0.00000


--------------------------------------------------------------------------------------------------------


 soft charge-density along one line, spin component           1
         0         1         2         3         4         5         6         7         8         9
 total charge-density along one line
 
 pseudopotential strength for first ion, spin component:           1
 18.442  25.729   0.000  -0.001   0.000   0.001  -0.001   0.000
 25.729  35.902   0.000  -0.001   0.000   0.001  -0.002   0.000
  0.000   0.000   4.182   0.000   0.000   7.792   0.000   0.000
 -0.001  -0.001   0.000   4.182   0.000   0.000   7.792   0.000
  0.000   0.000   0.000   0.000   4.182   0.000   0.000   7.792
  0.001   0.001   7.792   0.000   0.000  14.532   0.001   0.001
 -0.001  -0.002   0.000   7.792   0.000   0.001  14.532   0.000
  0.000   0.000   0.000   0.000   7.792   0.001   0.000  14.532
 total augmentation occupancy for first ion, spin component:           1
  5.889  -2.256  -0.125   0.092   0.147   0.047  -0.033  -0.053
 -2.256   0.978   0.039  -0.067  -0.075  -0.017   0.019   0.025
 -0.125   0.039   3.281   0.089  -0.034  -0.796  -0.028   0.010
  0.092  -0.067   0.089   3.248  -0.181  -0.028  -0.781   0.051
  0.147  -0.075  -0.034  -0.181   3.245   0.010   0.050  -0.782
  0.047  -0.017  -0.796  -0.028   0.010   0.201   0.009  -0.003
 -0.033   0.019  -0.028  -0.781   0.050   0.009   0.196  -0.015
 -0.053   0.025   0.010   0.051  -0.782  -0.003  -0.015   0.196


------------------------ aborting loop because EDIFF is reached ----------------------------------------


    CHARGE:  cpu time      3.8600: real time      3.8690
    FORLOC:  cpu time      0.0197: real time      0.0198
    FORNL :  cpu time      6.8589: real time      6.8744
    STRESS:  cpu time     27.5928: real time     27.6542
    FORCOR:  cpu time      0.1189: real time      0.1192
    FORHAR:  cpu time      0.2094: real time      0.2099
    MIXING:  cpu time      0.3473: real time      0.3480
    OFIELD:  cpu time      0.0000: real time      0.0000

  FORCE on cell =-STRESS in cart. coord.  units (eV):
  Direction    XX          YY          ZZ          XY          YZ          ZX
  --------------------------------------------------------------------------------------
  Alpha Z   105.59922   105.59922   105.59922
  Ewald   -2422.92890 -2423.68086 -2418.99583    18.14171     2.23170    12.15147
  Hartree   161.69587   160.85231   162.61817     2.28193     0.00801     1.74792
  E(xc)    -808.51860  -808.52226  -808.57174    -0.17368    -0.03445    -0.10978
  Local    -946.46480  -944.54902  -951.20300   -19.59936    -1.96713   -13.28897
  n-local  2484.26743  2484.17861  2485.18370     3.96271     0.71975     2.50804
  augment  -372.11760  -372.13060  -372.18303    -0.22858    -0.03163    -0.14055
  Kinetic  1798.38252  1798.92146  1798.48920    -1.48989    -0.25825    -0.95248
  Fock        0.00000     0.00000     0.00000     0.00000     0.00000     0.00000
  -------------------------------------------------------------------------------------
  Total      -0.08486     0.66886     0.93670     2.89484     0.66801     1.91564
  in kB      -0.10412     0.82072     1.14937     3.55207     0.81967     2.35056
  external pressure =        0.62 kB  Pullay stress =        0.00 kB


 VOLUME and BASIS-vectors are now :
 -----------------------------------------------------------------------------
  energy-cutoff  :      250.00
  volume of cell :     1305.73
      direct lattice vectors                 reciprocal lattice vectors
    10.931252780  0.000000000  0.000000000     0.091480823  0.000080048  0.000070600
    -0.009563070 10.928964940  0.000000000     0.000000000  0.091499973 -0.000014325
    -0.008436380  0.001711150 10.929612310     0.000000000  0.000000000  0.091494554

  length of vectors
    10.931252780 10.928969124 10.929615700     0.091480885  0.091499974  0.091494554


 FORCES acting on ions
    electron-ion (+dipol)            ewald-force                    non-local-force                 convergence-correction
 -----------------------------------------------------------------------------------------------
   0.264E+01 -.501E+01 0.699E+00   -.224E+01 0.421E+01 -.506E+00   -.920E+00 0.153E+01 -.862E-01   -.453E-03 -.344E-03 -.185E-02
   -.239E+01 -.827E+01 -.495E+00   0.209E+01 0.758E+01 0.253E+00   0.475E+00 0.140E+01 0.801E-01   -.577E-03 -.299E-02 -.961E-03
   0.205E+01 -.335E+01 -.200E+01   -.208E+01 0.314E+01 0.186E+01   0.505E-01 0.311E+00 -.394E-01   -.463E-04 -.139E-02 -.170E-02
   -.329E+01 -.625E+01 -.383E+01   0.315E+01 0.571E+01 0.340E+01   -.216E-01 0.155E+01 0.597E+00   -.169E-02 0.137E-02 0.116E-02
   0.578E+00 -.410E+00 0.177E+01   -.463E+00 0.823E+00 -.131E+01   0.168E+00 -.972E+00 0.927E-01   0.789E-03 -.349E-02 -.225E-02
   0.243E+01 0.104E+01 0.838E+00   -.201E+01 -.584E+00 -.422E+00   -.940E+00 -.881E+00 -.148E+00   -.104E-02 -.356E-02 -.404E-03
   0.514E+01 -.168E+01 -.129E+01   -.476E+01 0.180E+01 0.117E+01   -.302E+00 -.466E+00 -.151E+00   0.130E-02 -.289E-02 -.265E-02
   -.893E+00 -.703E+00 0.777E+01   0.111E+01 0.565E+00 -.672E+01   0.251E-01 -.348E+00 -.226E+01   -.180E-02 0.296E-03 -.253E-02
   -.424E+01 0.335E+01 0.649E+01   0.404E+01 -.280E+01 -.564E+01   0.566E+00 -.125E+01 -.189E+01   -.381E-02 -.134E-02 -.432E-03
   0.135E+01 0.232E+01 -.426E+01   -.119E+01 -.142E+01 0.372E+01   -.413E+00 -.850E+00 0.892E+00   -.773E-03 -.167E-02 -.306E-04
   -.197E+01 -.255E+01 0.434E+01   0.181E+01 0.237E+01 -.390E+01   0.276E+00 0.164E+00 -.336E+00   -.181E-02 -.107E-02 0.211E-02
   -.353E+01 -.269E+01 -.175E+01   0.313E+01 0.276E+01 0.171E+01   0.152E+01 0.196E+00 -.231E+00   -.144E-02 -.381E-02 -.113E-02
   -.469E+01 -.789E+01 -.160E+01   0.423E+01 0.707E+01 0.125E+01   0.122E+01 0.158E+01 0.562E+00   -.265E-02 -.174E-02 0.127E-02
   -.355E+01 -.224E+01 0.947E+00   0.305E+01 0.162E+01 -.518E+00   0.102E+01 0.420E-02 -.371E+00   0.727E-03 0.363E-03 0.583E-04
   0.351E+00 -.415E+01 0.531E+01   -.485E+00 0.395E+01 -.482E+01   0.216E+00 0.813E+00 -.122E+01   -.202E-02 -.164E-02 0.118E-03
   -.316E+01 0.212E+01 0.101E+01   0.278E+01 -.178E+01 -.665E+00   0.468E+00 -.974E+00 -.227E+00   -.199E-02 -.369E-02 -.442E-03
   0.164E+01 -.105E+01 -.620E+00   -.110E+01 0.592E+00 0.549E+00   -.526E+00 0.705E+00 -.519E+00   -.520E-02 0.143E-02 -.971E-03
   -.293E+01 0.342E+01 -.340E+01   0.261E+01 -.358E+01 0.294E+01   0.264E+00 -.409E+00 0.778E+00   -.613E-03 0.436E-02 -.897E-03
   0.204E+01 0.411E+01 0.694E+00   -.155E+01 -.365E+01 -.770E+00   -.130E+01 -.802E+00 0.222E+00   -.417E-02 -.877E-03 0.110E-02
   -.276E+01 0.353E+01 -.194E+01   0.259E+01 -.349E+01 0.190E+01   0.170E+00 -.783E+00 0.576E-01   -.219E-02 -.874E-03 -.112E-02
   -.266E+01 0.284E+01 -.147E+01   0.274E+01 -.289E+01 0.152E+01   0.337E+00 0.528E+00 0.291E+00   -.343E-02 0.246E-02 0.174E-02
   0.355E+01 0.284E+01 -.283E+00   -.309E+01 -.245E+01 0.328E+00   -.478E+00 -.338E+00 -.385E+00   -.190E-02 0.197E-02 -.226E-02
   -.291E+01 0.789E+00 0.213E+00   0.274E+01 -.954E+00 -.433E+00   0.788E+00 0.584E+00 0.381E+00   -.165E-02 0.190E-02 0.205E-02
   0.718E+00 -.267E+01 -.367E+01   -.305E+00 0.227E+01 0.328E+01   -.706E+00 0.110E+01 0.875E+00   -.195E-02 0.665E-04 -.117E-02
   0.339E+01 0.332E+01 0.372E+00   -.271E+01 -.286E+01 -.532E+00   -.108E+01 -.852E+00 0.230E+00   -.106E-02 0.276E-04 -.790E-03
   -.240E+01 0.202E+01 0.188E+00   0.239E+01 -.181E+01 -.265E+00   -.161E+00 -.619E+00 -.279E+00   -.166E-02 -.755E-03 0.324E-03
   0.701E+00 0.533E+00 -.174E+01   -.482E+00 -.582E+00 0.145E+01   -.204E+00 0.734E+00 0.270E-01   0.108E-02 0.165E-02 -.201E-02
   -.597E+01 0.525E+01 0.561E+01   0.564E+01 -.513E+01 -.483E+01   0.143E+01 -.173E+00 -.142E+01   -.170E-02 0.373E-02 0.173E-02
   -.207E+01 -.265E+01 -.276E+01   0.203E+01 0.203E+01 0.239E+01   -.111E+00 0.113E+01 0.156E+01   0.130E-02 0.132E-02 -.484E-03
   -.305E+01 -.460E+01 0.368E+00   0.277E+01 0.395E+01 -.305E+00   0.584E+00 0.120E+01 -.326E+00   0.106E-02 -.154E-02 0.629E-03
   -.134E+00 0.508E+01 -.328E+01   0.650E-01 -.470E+01 0.312E+01   0.573E+00 -.899E+00 0.637E+00   0.237E-02 0.651E-03 -.266E-02
   -.308E+01 0.244E+01 0.309E+01   0.296E+01 -.221E+01 -.289E+01   0.154E+00 -.233E+00 -.553E+00   -.117E-02 0.494E-03 -.167E-02
   -.128E+01 0.300E+01 0.409E+01   0.789E+00 -.281E+01 -.380E+01   0.691E+00 -.795E+00 -.270E+00   -.145E-02 -.238E-02 -.315E-03
   0.168E+01 -.273E+01 -.260E+01   -.147E+01 0.249E+01 0.231E+01   0.126E+00 0.154E+00 -.275E-01   0.116E-02 -.854E-04 -.203E-02
   -.580E+01 -.954E+00 0.452E+01   0.520E+01 0.633E+00 -.380E+01   0.138E+01 -.424E+00 -.919E+00   -.552E-03 -.232E-02 0.149E-02
   -.548E-01 -.775E+01 -.475E+01   -.261E+00 0.730E+01 0.414E+01   0.268E+00 0.131E+01 0.771E+00   0.363E-03 -.157E-02 0.148E-04
   -.698E+00 -.185E+01 0.854E+00   0.534E+00 0.204E+01 -.686E+00   0.800E+00 0.308E+00 -.470E+00   0.870E-03 -.197E-02 0.103E-03
   0.191E+00 0.251E+01 -.296E+01   -.477E-01 -.241E+01 0.293E+01   -.645E+00 0.488E-01 0.727E+00   -.120E-02 0.968E-03 0.103E-03
   -.439E+00 -.141E+01 0.168E+01   0.560E+00 0.146E+01 -.176E+01   -.544E+00 0.285E+00 0.337E+00   -.196E-02 -.333E-02 0.196E-02
   0.147E+01 -.111E+01 0.463E+01   -.109E+01 0.119E+01 -.405E+01   -.693E+00 -.694E+00 -.152E+01   0.119E-02 -.430E-02 -.291E-02
   0.545E+01 0.578E+01 0.527E+00   -.503E+01 -.505E+01 -.310E+00   -.139E+01 -.153E+01 -.582E-01   0.117E-02 -.300E-02 -.174E-02
   -.342E+01 0.494E+00 0.123E+01   0.321E+01 0.162E+00 -.132E+01   0.300E+00 -.796E+00 -.482E-01   0.265E-03 -.357E-02 0.749E-03
   0.491E+01 -.307E+01 0.388E+01   -.451E+01 0.292E+01 -.326E+01   -.199E+00 0.306E+00 -.988E+00   0.270E-02 0.106E-03 -.206E-02
   0.420E+01 0.268E+00 -.113E+01   -.426E+01 0.237E+00 0.808E+00   -.537E+00 -.184E+00 0.309E+00   0.447E-03 -.749E-03 0.907E-03
   0.235E+00 -.379E+01 -.136E+01   -.682E+00 0.348E+01 0.106E+01   0.113E+01 0.583E+00 0.123E+01   0.331E-02 -.121E-02 0.406E-03
   -.124E+01 -.524E+01 -.541E+00   0.868E+00 0.462E+01 0.622E+00   0.922E-01 0.113E+01 -.558E-01   -.192E-02 -.291E-02 0.854E-03
   -.257E+00 0.771E+00 -.698E+01   -.161E+00 -.256E+00 0.634E+01   0.435E+00 -.767E+00 0.127E+01   0.183E-02 -.979E-03 -.315E-02
   -.151E+01 0.172E+01 0.297E+01   0.102E+01 -.134E+01 -.260E+01   0.713E+00 -.595E+00 -.228E+00   0.249E-02 0.990E-03 -.229E-02
   0.431E+01 -.397E+01 0.147E+01   -.402E+01 0.325E+01 -.146E+01   -.116E+01 0.128E+01 -.509E+00   0.134E-02 0.145E-02 -.393E-02
   0.107E+01 0.293E+00 0.667E+00   -.860E+00 -.792E+00 -.297E+00   0.250E+00 0.174E+00 -.980E+00   0.842E-03 -.124E-02 -.156E-02
   0.821E+00 0.154E+01 0.305E+01   -.733E+00 -.169E+01 -.272E+01   -.165E+00 -.422E-01 -.303E+00   0.190E-02 -.444E-03 -.260E-02
   0.770E+00 0.803E+01 0.199E+01   -.110E+01 -.769E+01 -.149E+01   0.181E+00 -.197E+01 -.458E+00   0.754E-03 0.139E-02 0.621E-03
   0.502E+01 0.230E+01 -.439E+01   -.454E+01 -.212E+01 0.381E+01   -.828E+00 -.271E-01 0.128E+01   0.292E-02 0.121E-02 -.102E-02
   0.910E+00 -.363E+01 -.525E+01   -.802E+00 0.325E+01 0.471E+01   -.928E+00 0.136E+01 0.707E+00   -.206E-02 -.134E-02 -.258E-03
   0.325E+01 0.133E+01 0.894E+00   -.269E+01 -.152E+01 -.113E+01   -.327E+00 0.534E+00 0.186E+00   0.343E-03 0.173E-02 -.341E-02
   -.104E+01 0.587E+01 -.438E+01   0.106E+01 -.525E+01 0.351E+01   0.378E+00 -.102E+00 0.133E+01   0.142E-02 0.138E-02 0.130E-02
   0.277E+01 -.772E+00 -.105E+01   -.239E+01 0.105E+01 0.592E+00   -.108E+01 0.349E+00 0.877E+00   -.229E-02 0.152E-02 0.315E-02
   0.189E+01 0.368E+01 0.362E+01   -.165E+01 -.343E+01 -.314E+01   -.125E+01 -.950E+00 -.670E+00   -.116E-02 0.296E-02 -.698E-03
   -.141E+01 0.244E+01 -.961E+00   0.121E+01 -.205E+01 0.747E+00   0.115E+01 -.957E+00 0.407E+00   -.114E-02 0.820E-04 0.253E-02
   0.169E+01 -.913E+00 -.483E+01   -.174E+01 0.557E+00 0.420E+01   0.270E+00 0.117E+01 0.110E+01   0.128E-02 0.433E-03 -.424E-04
   0.152E+01 -.151E+01 0.655E+01   -.161E+01 0.110E+01 -.585E+01   0.202E+00 -.105E-01 -.171E+01   -.283E-03 0.337E-03 0.162E-02
   -.620E+00 -.768E-01 -.300E+01   0.624E+00 0.127E+00 0.239E+01   0.290E-02 0.122E+00 0.672E+00   0.312E-03 0.195E-02 0.115E-03
   0.592E+00 0.671E+01 -.279E+01   -.786E+00 -.606E+01 0.243E+01   -.637E+00 -.132E+01 0.903E+00   -.349E-02 0.738E-03 0.781E-03
   0.440E+01 0.330E+01 -.998E+00   -.414E+01 -.293E+01 0.735E+00   -.140E+01 -.744E+00 0.300E+00   0.101E-03 -.352E-02 -.177E-02
 -----------------------------------------------------------------------------------------------
   0.289E+00 0.129E+00 -.341E-01   0.131E-12 -.149E-12 -.552E-13   -.280E+00 -.109E+00 0.391E-01   -.287E-01 -.293E-01 -.292E-01
 
 
 POSITION                                       TOTAL-FORCE (eV/Angst)
 -----------------------------------------------------------------------------------
      0.00673     10.83996     10.86839        -0.512242      0.732481      0.105135
      2.76901      2.72832      0.01055         0.176550      0.706805     -0.162436
      2.68025      0.07752      2.77469         0.021845      0.098295     -0.173028
      0.11235      2.63620      2.75690        -0.167196      1.013421      0.168226
      1.34814      1.37450      1.25130         0.284223     -0.562973      0.546650
      4.25810      4.09995      1.35929        -0.521816     -0.429023      0.268581
      4.03166      1.44522      4.18156         0.074015     -0.348058     -0.267275
      1.41706      4.16482      4.18973         0.243777     -0.486345     -1.221629
     10.90700      0.02124      5.59242         0.355950     -0.691712     -1.032172
      2.69708      2.76978      5.57682        -0.253916      0.045874      0.350651
      2.68180      0.00748      8.17508         0.111722     -0.020972      0.109567
     10.72303      2.74079      8.33886         1.121285      0.261398     -0.266394
      1.21313      1.39700      6.93517         0.764625      0.759884      0.211306
      4.10492      4.19463      6.84867         0.520899     -0.613273      0.058315
      4.06284      1.31287      9.59200         0.080452      0.602803     -0.734166
      1.30439      4.12052      9.60046         0.088889     -0.641825      0.118880
     10.91411      5.44472      0.07542         0.015265      0.252955     -0.590276
      2.72222      8.25772      0.02410        -0.048878     -0.561318      0.314741
      2.88327      5.48116      2.70765        -0.823568     -0.340066      0.148343
      0.08947      8.20702      2.80841         0.005523     -0.747522      0.019479
      1.38172      6.78416      1.37652         0.414944      0.485225      0.347636
      4.04350      9.64816      1.42137        -0.019471      0.058971     -0.341006
      4.17684      6.86178      4.06135         0.620964      0.422012      0.163323
      1.42777      9.54761      4.16056        -0.295145      0.693715      0.486972
      0.01044      5.50643      5.46080        -0.406201     -0.392002      0.069209
      2.85517      8.23705      5.49364        -0.171802     -0.407868     -0.354452
      2.66811      5.42462      8.22090         0.016352      0.686983     -0.272807
     10.88915      8.17483      8.20619         1.098879     -0.054830     -0.638668
      1.41665      6.82445      6.71902        -0.150562      0.521512      1.184971
      4.14426      9.59728      6.87583         0.310057      0.551092     -0.262106
      4.01191      6.84774      9.57229         0.506501     -0.525420      0.477994
      1.36678      9.52481      9.53884         0.032246      0.004731     -0.357613
      5.42641      0.02151      0.01278         0.195525     -0.610291      0.010287
      8.06442      2.71937      0.09544         0.338367     -0.085660     -0.321534
      8.19383      0.05756      2.72383         0.779385     -0.747975     -0.192039
      5.50053      2.72126      2.86566        -0.047319      0.865145      0.161726
      6.69394      1.31851      1.46078         0.636570      0.497487     -0.302021
      9.63186      3.98333      1.35267        -0.503254      0.152933      0.705034
      9.64116      1.31816      4.09310        -0.424881      0.331982      0.266982
      6.97653      4.18320      4.19034        -0.310043     -0.620813     -0.946863
      5.52780      0.04477      5.36687        -0.966381     -0.807294      0.157564
      8.30765      2.76105      5.47515         0.096780     -0.143498     -0.142095
      8.08503      0.05942      8.17587         0.202084      0.148552     -0.367017
      5.47441      2.68882      8.16939        -0.599713      0.319588     -0.015649
      6.78698      1.40966      6.67857         0.688622      0.269820      0.938168
      9.56526      4.15339      6.88604        -0.279899      0.503518      0.027256
      9.41309      1.33778      9.61908         0.019609     -0.253603      0.629750
      6.82993      4.09895      9.50191         0.223594     -0.206711      0.141698
      5.56779      5.45145     10.91333        -0.872684      0.565184     -0.503455
      8.26049      8.27568      0.07261         0.465124     -0.326274     -0.610820
      8.26949      5.48502      2.67664        -0.074176     -0.194308      0.024679
      5.50775      8.35382      2.66687        -0.143894     -1.628677      0.043740
      6.89538      6.86633      1.29993        -0.339513      0.156811      0.707070
      9.70168      9.50848      1.42693        -0.821702      0.976551      0.170117
      9.56402      6.83447      4.10614         0.231350      0.347497     -0.056991
      6.88314      9.55522      4.05339         0.405796      0.524433      0.470120
      5.59197      5.51163      5.47271        -0.698219      0.628790      0.425400
      8.33190      8.31910      5.49214        -1.006271     -0.700691     -0.185753
      8.11961      5.59779      8.20371         0.948212     -0.565887      0.195550
      5.42388      8.18783      8.26508         0.221869      0.811202      0.462106
      6.84357      7.00983      6.89039         0.115756     -0.414978     -1.004218
      9.55324      9.62253      6.94565         0.008248      0.174087      0.061353
      9.60870      6.88896      9.58988        -0.834165     -0.666563      0.538560
      6.90448      9.61440      9.61826        -1.148944     -0.375305      0.035344
 -----------------------------------------------------------------------------------
    total drift:                               -0.019261     -0.009746     -0.024157


--------------------------------------------------------------------------------------------------------



  FREE ENERGIE OF THE ION-ELECTRON SYSTEM (eV)
  ---------------------------------------------------
  free  energy   TOTEN  =      -344.61978324 eV

  energy  without entropy=     -344.61978324  energy(sigma->0) =     -344.61978324
 


--------------------------------------------------------------------------------------------------------


    POTLOK:  cpu time      0.4370: real time      0.4380


--------------------------------------------------------------------------------------------------------


 writing wavefunctions
     LOOP+:  cpu time    205.6129: real time    206.5644
    4ORBIT:  cpu time      0.0000: real time      0.0000

 total amount of memory used by VASP MPI-rank0    37850. kBytes
=======================================================================

   base      :      30000. kBytes
   nonlr-proj:       1190. kBytes
   fftplans  :        841. kBytes
   grid      :       1174. kBytes
   one-center:          9. kBytes
   wavefun   :       4636. kBytes
 
  
  
 General timing and accounting informations for this job:
 ========================================================
  
                  Total CPU time used (sec):      248.357
                            User time (sec):      248.180
                          System time (sec):        0.177
                         Elapsed time (sec):      252.397
  
                   Maximum memory used (kb):      213592.
                   Average memory used (kb):          N/A
  
                          Minor page faults:        19296
                          Major page faults:         8080
                 Voluntary context switches:         4304
