 vasp.6.4.2 20Jul23 (build Jun 27 2024 19:57:08) complex                        
  
 executed on                 T2A5 date 2026.01.13  22:39:36
 running   28 mpi-ranks, with    1 threads/rank, on    1 nodes
 distrk:  each k-point on   28 cores,    1 groups
 distr:  one band on NCORE=  28 cores,    1 groups


--------------------------------------------------------------------------------------------------------


 INCAR:
   ISTART = 1
   ICHARG = 1
   LWAVE = .T.
   LCHARG = .T.
   ENCUT = 250
   PREC = Normal
   ADDGRID = .F.
   EDIFF = 1E-4
   LREAL = Auto
   ALGO = Fast
   NSW = 0
   IBRION = -1
   ISMEAR = 0
   SIGMA = 0.1
   NPAR = 1
   KPAR = 1
   SYMPREC = 1E-4

 POTCAR:    PAW_PBE Si 05Jan2001                  
 POTCAR:    PAW_PBE Si 05Jan2001                  
   SHA256 =  79d9987ad8750f624c4d6acb2a16d13abf6a777132adc04dc6c8399be72b42bb Si/POTCAR             
   COPYR  = (c) Copyright 05Jan2001 Georg Kresse                                                    
   COPYR  = This file is part of the software VASP. Any use, copying, and all other rights are regul
   COPYR  = If you do not have a valid VASP license, you may not use, copy or distribute this file. 
   VRHFIN =Si: s2p2                                                                                 
   LEXCH  = PE                                                                                      
   EATOM  =   103.0669 eV,    7.5752 Ry                                                             
                                                                                                    
   TITEL  = PAW_PBE Si 05Jan2001                                                                    
   LULTRA =        F    use ultrasoft PP ?                                                          
   IUNSCR =        1    unscreen: 0-lin 1-nonlin 2-no                                               
   RPACOR =    1.500    partial core radius                                                         
   POMASS =   28.085; ZVAL   =    4.000    mass and valenz                                          
   RCORE  =    1.900    outmost cutoff radius                                                       
   RWIGS  =    2.480; RWIGS  =    1.312    wigner-seitz radius (au A)                               
   ENMAX  =  245.345; ENMIN  =  184.009 eV                                                          
   ICORE  =        2    local potential                                                             
   LCOR   =        T    correct aug charges                                                         
   LPAW   =        T    paw PP                                                                      
   EAUG   =  322.069                                                                                
   DEXC   =    0.000                                                                                
   RMAX   =    1.950    core radius for proj-oper                                                   
   RAUG   =    1.300    factor for augmentation sphere                                              
   RDEP   =    1.993    radius for radial grids                                                     
   RDEPT  =    1.837    core radius for aug-charge                                                  
                                                                                                    
   Atomic configuration                                                                             
    6 entries                                                                                       
     n  l   j            E        occ.                                                              
     1  0  0.50     -1785.8828   2.0000                                                             
     2  0  0.50      -139.4969   2.0000                                                             
     2  1  1.50       -95.5546   6.0000                                                             
     3  0  0.50       -10.8127   2.0000                                                             
     3  1  0.50        -4.0811   2.0000                                                             
     3  2  1.50        -4.0817   0.0000                                                             
   Description                                                                                      
     l       E           TYP  RCUT    TYP  RCUT                                                     
     0    -10.8127223     23  1.900                                                                 
     0     -7.6451159     23  1.900                                                                 
     1     -4.0811372     23  1.900                                                                 
     1      2.4879257     23  1.900                                                                 
     2     -4.0817478      7  1.900                                                                 
  local pseudopotential read in
  partial core-charges read in
  partial kinetic energy density read in
  atomic valenz-charges read in
  non local Contribution for L=           0  read in
    real space projection operators read in
  non local Contribution for L=           0  read in
    real space projection operators read in
  non local Contribution for L=           1  read in
    real space projection operators read in
  non local Contribution for L=           1  read in
    real space projection operators read in
    PAW grid and wavefunctions read in
 
   number of l-projection  operators is LMAX  =           4
   number of lm-projection operators is LMMAX =           8
 
 Optimization of the real space projectors (new method)

 maximal supplied QI-value         = 19.84
 optimisation between [QCUT,QGAM] = [  7.94, 16.07] = [ 17.64, 72.34] Ry 
 Optimized for a Real-space Cutoff    1.55 Angstroem

   l    n(q)    QCUT    max X(q) W(low)/X(q) W(high)/X(q)  e(spline) 
   0      7     7.937   159.560    0.97E-04    0.31E-03    0.13E-06
   0      7     7.937   115.863    0.95E-04    0.31E-03    0.13E-06
   1      7     7.937    88.339    0.40E-03    0.66E-03    0.12E-06
   1      7     7.937    48.592    0.39E-03    0.64E-03    0.12E-06
  PAW_PBE Si 05Jan2001                  :
 energy of atom  1       EATOM= -103.0669
 kinetic energy error for atom=    0.0052 (will be added to EATOM!!)
 
 
 POSCAR: Si
  positions in cartesian coordinates
  No initial velocities read in
 exchange correlation table for  LEXCH =        8
   RHO(1)=    0.500       N(1)  =     2000
   RHO(2)=  100.500       N(2)  =     4000
 


--------------------------------------------------------------------------------------------------------


 ion  position               nearest neighbor table
   1  0.998  0.005  1.000-  47 2.31  54 2.32   5 2.37  32 2.43
   2  0.259  0.256  0.002-  16 2.32   6 2.33  15 2.37   5 2.39
   3  0.249  0.007  0.254-   5 2.33  24 2.35   7 2.35  22 2.39
   4  0.006  0.257  0.252-   8 2.26  38 2.31  39 2.35   5 2.40
   5  0.130  0.127  0.123-   3 2.33   1 2.37   2 2.39   4 2.40
   6  0.381  0.377  0.130-   2 2.33  19 2.35  36 2.35  49 2.38
   7  0.367  0.133  0.384-   3 2.35  41 2.37  10 2.38  36 2.39
   8  0.136  0.372  0.367-   4 2.26  19 2.28  10 2.35  25 2.42
   9  0.008  0.004  0.504-  24 2.32  39 2.35  62 2.39  13 2.42
  10  0.247  0.261  0.516-  13 2.31  14 2.33   8 2.35   7 2.38
  11  0.251  0.006  0.747-  13 2.32  15 2.33  30 2.33  32 2.39
  12  0.997  0.254  0.765-  16 2.33  13 2.33  46 2.40  47 2.43
  13  0.124  0.139  0.638-  10 2.31  11 2.32  12 2.33   9 2.42
  14  0.382  0.384  0.627-  44 2.30  57 2.32  10 2.33  27 2.38
  15  0.376  0.133  0.866-  44 2.31  11 2.33   2 2.37  33 2.43
  16  0.130  0.375  0.881-   2 2.32  12 2.33  17 2.36  27 2.39
  17  0.004  0.498  0.008-  63 2.34  16 2.36  38 2.39  21 2.40
  18  0.252  0.746  0.007-  21 2.32  22 2.35  31 2.35  32 2.41
  19  0.260  0.501  0.257-   8 2.28  21 2.33   6 2.35  23 2.38
  20  0.013  0.750  0.261-  21 2.33  55 2.34  24 2.37  54 2.41
  21  0.133  0.624  0.136-  18 2.32  19 2.33  20 2.33  17 2.40
  22  0.373  0.875  0.131-  18 2.35  33 2.38   3 2.39  52 2.42
  23  0.392  0.628  0.375-  57 2.28  52 2.28  26 2.35  19 2.38
  24  0.135  0.880  0.387-   9 2.32   3 2.35  26 2.36  20 2.37
  25  0.008  0.497  0.498-  46 2.36  55 2.38   8 2.42  29 2.42
  26  0.266  0.751  0.501-  23 2.35  30 2.36  24 2.36  29 2.38
  27  0.252  0.505  0.754-  31 2.33  29 2.33  14 2.38  16 2.39
  28  0.009  0.749  0.749-  29 2.32  32 2.34  62 2.39  63 2.47
  29  0.134  0.630  0.625-  28 2.32  27 2.33  26 2.38  25 2.42
  30  0.380  0.884  0.629-  41 2.29  11 2.33  60 2.35  26 2.36
  31  0.377  0.624  0.881-  49 2.27  27 2.33  18 2.35  60 2.39
  32  0.129  0.875  0.875-  28 2.34  11 2.39  18 2.41   1 2.43
  33  0.496  0.005  0.004-  64 2.34  22 2.38  15 2.43  37 2.43
  34  0.747  0.253  0.009-  47 2.31  37 2.32  38 2.35  48 2.36
  35  0.765  0.004  0.250-  54 2.29  39 2.36  56 2.38  37 2.39
  36  0.501  0.261  0.266-  40 2.29   6 2.35   7 2.39  37 2.43
  37  0.627  0.131  0.135-  34 2.32  35 2.39  36 2.43  33 2.43
  38  0.874  0.375  0.135-  51 2.29   4 2.31  34 2.35  17 2.39
  39  0.886  0.130  0.379-   4 2.35   9 2.35  42 2.36  35 2.36
  40  0.633  0.383  0.376-  36 2.29  51 2.33  42 2.38  57 2.43
  41  0.497  0.002  0.499-  30 2.29   7 2.37  56 2.40  45 2.44
  42  0.761  0.257  0.502-  39 2.36  45 2.36  46 2.37  40 2.38
  43  0.741  0.004  0.754-  47 2.35  45 2.36  64 2.37  62 2.43
  44  0.501  0.257  0.747-  14 2.30  15 2.31  48 2.33  45 2.35
  45  0.628  0.135  0.623-  44 2.35  43 2.36  42 2.36  41 2.44
  46  0.880  0.385  0.632-  59 2.31  25 2.36  42 2.37  12 2.40
  47  0.862  0.123  0.887-   1 2.31  34 2.31  43 2.35  12 2.43
  48  0.627  0.374  0.874-  44 2.33  34 2.36  59 2.36  49 2.40
  49  0.500  0.504  0.998-  31 2.27  53 2.37   6 2.38  48 2.40
  50  0.760  0.758  0.002-  63 2.37  64 2.39  54 2.39  53 2.39
  51  0.756  0.506  0.250-  38 2.29  40 2.33  53 2.34  55 2.37
  52  0.511  0.744  0.247-  23 2.28  53 2.29  56 2.42  22 2.42
  53  0.632  0.626  0.122-  52 2.29  51 2.34  49 2.37  50 2.39
  54  0.888  0.880  0.133-  35 2.29   1 2.32  50 2.39  20 2.41
  55  0.880  0.629  0.379-  20 2.34  51 2.37  58 2.37  25 2.38
  56  0.633  0.881  0.373-  58 2.35  35 2.38  41 2.40  52 2.42
  57  0.504  0.510  0.506-  23 2.28  61 2.31  14 2.32  40 2.43
  58  0.750  0.753  0.501-  61 2.32  56 2.35  55 2.37  62 2.40
  59  0.753  0.503  0.754-  46 2.31  63 2.32  48 2.36  61 2.40
  60  0.499  0.761  0.760-  64 2.26  30 2.35  31 2.39  61 2.44
  61  0.627  0.633  0.628-  57 2.31  58 2.32  59 2.40  60 2.44
  62  0.877  0.879  0.630-   9 2.39  28 2.39  58 2.40  43 2.43
  63  0.878  0.619  0.883-  59 2.32  17 2.34  50 2.37  28 2.47
  64  0.619  0.877  0.884-  60 2.26  33 2.34  43 2.37  50 2.39
 
  LATTYP: Found a base centered monoclinic cell.
 ALAT       =    26.6765913012
 B/A-ratio  =     0.5766145374
 C/A-ratio  =     0.4079823516
 COS(beta)  =    -0.8165689890
  
  Lattice vectors:
  
 A1 = (  10.8911383900, -10.8835748200,   0.0000000000)
 A2 = (   0.0208436800, -10.8907956900, -10.8832880900)
 A3 = (  -0.0088907400,  10.8835748200,   0.0000000000)


Analysis of symmetry for initial positions (statically):
=====================================================================
 Subroutine PRICEL returns:
 Original cell was already a primitive cell.
 

 Routine SETGRP: Setting up the symmetry group for a 
 base centered monoclinic supercell.


 Subroutine GETGRP returns: Found  1 space group operations
 (whereof  1 operations were pure point group operations)
 out of a pool of  4 trial point group operations.


The static configuration has the point symmetry C_1 .


Analysis of symmetry for dynamics (positions and initial velocities):
=====================================================================
 Subroutine PRICEL returns:
 Original cell was already a primitive cell.
 

 Routine SETGRP: Setting up the symmetry group for a 
 base centered monoclinic supercell.


 Subroutine GETGRP returns: Found  1 space group operations
 (whereof  1 operations were pure point group operations)
 out of a pool of  4 trial point group operations.


The dynamic configuration has the point symmetry C_1 .


 Subroutine INISYM returns: Found  1 space group operations
 (whereof  1 operations are pure point group operations),
 and found     1 'primitive' translations


----------------------------------------------------------------------------------------

                                     Primitive cell                                     

  volume of cell :    1288.9922

  direct lattice vectors                    reciprocal lattice vectors
    10.882247650  0.000000000  0.000000000     0.091892781  0.000075067  0.000100875
    -0.008890740 10.883574820  0.000000000     0.000000000  0.091881575 -0.000060962
    -0.011952940  0.007220870 10.883288090     0.000000000  0.000000000  0.091883996

  length of vectors
    10.882247650 10.883578451 10.883297049     0.091892867  0.091881596  0.091883996

  position of ions in fractional coordinates (direct lattice)
     0.997954037  0.005397760  0.999840745
     0.259112321  0.256143347  0.001568413
     0.249060620  0.006759844  0.254432302
     0.006476639  0.256543469  0.252226053
     0.129505192  0.127019066  0.123397331
     0.381295482  0.376933633  0.129594339
     0.366695371  0.133415231  0.384165813
     0.136343071  0.371888912  0.366909810
     0.007831444  0.003576367  0.504396972
     0.247431787  0.260852611  0.515548407
     0.251024636  0.006462648  0.747473595
     0.996508377  0.254359084  0.765418911
     0.124243353  0.138586438  0.638080541
     0.382057588  0.384425372  0.627279801
     0.376407022  0.132837785  0.865995283
     0.130040462  0.375405293  0.881434428
     0.003980180  0.497631598  0.008215821
     0.251852939  0.746258945  0.007489868
     0.259511573  0.500833645  0.256746760
     0.013407385  0.750248486  0.260708010
     0.132819335  0.623802578  0.135863613
     0.373387363  0.875095270  0.130906716
     0.391521566  0.628497242  0.375363836
     0.134889483  0.880283403  0.386656427
     0.008184748  0.497336407  0.497566384
     0.266374608  0.751335909  0.500974240
     0.251962299  0.505406636  0.753722225
     0.008549919  0.748567020  0.749323940
     0.133884331  0.629599308  0.624816912
     0.380403771  0.883890731  0.628829926
     0.376696373  0.624132992  0.880802160
     0.129206208  0.874754331  0.874711544
     0.496277189  0.004540953  0.004464810
     0.747135461  0.253137860  0.008768594
     0.765319730  0.004346754  0.249562321
     0.501135199  0.260579029  0.266310909
     0.626602998  0.131119813  0.134980992
     0.873836538  0.374506051  0.135438889
     0.885885784  0.130434255  0.378926894
     0.633388218  0.382661441  0.375985330
     0.496841185  0.001632139  0.498861860
     0.761211921  0.257383645  0.501876251
     0.740559996  0.003936312  0.753948125
     0.500809889  0.257134579  0.746826209
     0.628132669  0.135400595  0.622706024
     0.880018539  0.385175068  0.631593484
     0.862447979  0.123255959  0.886863702
     0.627429029  0.374017815  0.874279340
     0.500492721  0.504454510  0.997841215
     0.760153047  0.757697842  0.002186310
     0.755959292  0.505561966  0.250093961
     0.510875291  0.744069300  0.247459397
     0.631548922  0.626190989  0.121915479
     0.887611277  0.879540708  0.132536096
     0.880301714  0.629155306  0.378708139
     0.632854613  0.881448058  0.373311734
     0.504360842  0.509556345  0.505854630
     0.749652249  0.752734493  0.500893336
     0.753471927  0.503173735  0.753907307
     0.499346688  0.760913887  0.760084952
     0.627021141  0.633181860  0.627857628
     0.877445090  0.878708456  0.629725158
     0.878198973  0.618783590  0.882785072
     0.619457900  0.877109611  0.883825105

  ion indices of the primitive-cell ions
   primitive index   ion index
                 1           1
                 2           2
                 3           3
                 4           4
                 5           5
                 6           6
                 7           7
                 8           8
                 9           9
                10          10
                11          11
                12          12
                13          13
                14          14
                15          15
                16          16
                17          17
                18          18
                19          19
                20          20
                21          21
                22          22
                23          23
                24          24
                25          25
                26          26
                27          27
                28          28
                29          29
                30          30
                31          31
                32          32
                33          33
                34          34
                35          35
                36          36
                37          37
                38          38
                39          39
                40          40
                41          41
                42          42
                43          43
                44          44
                45          45
                46          46
                47          47
                48          48
                49          49
                50          50
                51          51
                52          52
                53          53
                54          54
                55          55
                56          56
                57          57
                58          58
                59          59
                60          60
                61          61
                62          62
                63          63
                64          64

----------------------------------------------------------------------------------------

 
 
 KPOINTS: K-Points                                

Automatic generation of k-mesh.
 Grid dimensions read from file:
 generate k-points for:    2    2    2

 Generating k-lattice:

  Cartesian coordinates                     Fractional coordinates (reciprocal lattice)
     0.045946390  0.000037533  0.000050437     0.500000000 -0.000000000  0.000000000
     0.000000000  0.045940788 -0.000030481     0.000000000  0.500000000 -0.000000000
     0.000000000  0.000000000  0.045941998     0.000000000  0.000000000  0.500000000

  Length of vectors
     0.045946434  0.045940798  0.045941998

  Shift w.r.t. Gamma in fractional coordinates (k-lattice)
     0.500000000  0.500000000  0.500000000

 
 Subroutine IBZKPT returns following result:
 ===========================================
 
 Found      4 irreducible k-points:
 
 Following reciprocal coordinates:
            Coordinates               Weight
  0.250000  0.250000  0.250000      2.000000
  0.250000 -0.250000  0.250000      2.000000
 -0.250000  0.250000  0.250000      2.000000
 -0.250000 -0.250000  0.250000      2.000000
 
 Following cartesian coordinates:
            Coordinates               Weight
  0.022973  0.022989  0.022981      2.000000
  0.022973 -0.022952  0.023011      2.000000
 -0.022973  0.022952  0.022931      2.000000
 -0.022973 -0.022989  0.022961      2.000000
 


--------------------------------------------------------------------------------------------------------




 Dimension of arrays:
   k-points           NKPTS =      4   k-points in BZ     NKDIM =      4   number of bands    NBANDS=    161
   number of dos      NEDOS =    301   number of ions     NIONS =     64
   non local maximal  LDIM  =      4   non local SUM 2l+1 LMDIM =      8
   total plane-waves  NPLWV =  74088
   max r-space proj   IRMAX =    949   max aug-charges    IRDMAX=   2121
   dimension x,y,z NGX =    42 NGY =   42 NGZ =   42
   dimension x,y,z NGXF=    84 NGYF=   84 NGZF=   84
   support grid    NGXF=    84 NGYF=   84 NGZF=   84
   ions per type =              64
   NGX,Y,Z   is equivalent  to a cutoff of   6.42,  6.42,  6.42 a.u.
   NGXF,Y,Z  is equivalent  to a cutoff of  12.83, 12.83, 12.83 a.u.

 SYSTEM =  unknown system                          
 POSCAR =  Si                                      

 Startparameter for this run:
   NWRITE =      2    write-flag & timer
   PREC   = normal    normal or accurate (medium, high low for compatibility)
   ISTART =      1    job   : 0-new  1-cont  2-samecut
   ICHARG =      1    charge: 1-file 2-atom 10-const
   ISPIN  =      1    spin polarized calculation?
   LNONCOLLINEAR =      F non collinear calculations
   LSORBIT =      F    spin-orbit coupling
   INIWAV =      1    electr: 0-lowe 1-rand  2-diag
   LASPH  =      F    aspherical Exc in radial PAW
 Electronic Relaxation 1
   ENCUT  =  250.0 eV  18.37 Ry    4.29 a.u.  14.03 14.03 14.03*2*pi/ulx,y,z
   ENINI  =  250.0     initial cutoff
   ENAUG  =  322.1 eV  augmentation charge cutoff
   NELM   =     60;   NELMIN=  2; NELMDL=  0     # of ELM steps 
   EDIFF  = 0.1E-03   stopping-criterion for ELM
   LREAL  =      T    real-space projection
   NLSPLINE    = F    spline interpolate recip. space projectors
   LCOMPAT=      F    compatible to vasp.4.4
   GGA_COMPAT  = T    GGA compatible to vasp.4.4-vasp.4.6
   LMAXPAW     = -100 max onsite density
   LMAXMIX     =    2 max onsite mixed and CHGCAR
   VOSKOWN=      0    Vosko Wilk Nusair interpolation
   ROPT   =   -0.00050
 Ionic relaxation
   EDIFFG = 0.1E-02   stopping-criterion for IOM
   NSW    =      0    number of steps for IOM
   NBLOCK =      1;   KBLOCK =      1    inner block; outer block 
   IBRION =     -1    ionic relax: 0-MD 1-quasi-New 2-CG
   NFREE  =      0    steps in history (QN), initial steepest desc. (CG)
   ISIF   =      2    stress and relaxation
   IWAVPR =     10    prediction:  0-non 1-charg 2-wave 3-comb
   ISYM   =      2    0-nonsym 1-usesym 2-fastsym
   LCORR  =      T    Harris-Foulkes like correction to forces

   POTIM  = 0.5000    time-step for ionic-motion
   TEIN   =    0.0    initial temperature
   TEBEG  =    0.0;   TEEND  =   0.0 temperature during run
   SMASS  =  -3.00    Nose mass-parameter (am)
   estimated Nose-frequenzy (Omega)   =  0.10E-29 period in steps = 0.13E+47 mass=  -0.271E-26a.u.
   SCALEE = 1.0000    scale energy and forces
   NPACO  =    256;   APACO  = 10.0  distance and # of slots for P.C.
   PSTRESS=    0.0 pullay stress

  Mass of Ions in am
   POMASS =  28.09
  Ionic Valenz
   ZVAL   =   4.00
  Atomic Wigner-Seitz radii
   RWIGS  =  -1.00
  virtual crystal weights 
   VCA    =   1.00
   NELECT =     256.0000    total number of electrons
   NUPDOWN=      -1.0000    fix difference up-down

 DOS related values:
   EMIN   =  10.00;   EMAX   =-10.00  energy-range for DOS
   EFERMI =   0.00;   METHOD = LEGACY      
   ISMEAR =     0;   SIGMA  =   0.10  broadening in eV -4-tet -1-fermi 0-gaus

 Electronic relaxation 2 (details)
   IALGO  =     68    algorithm
   LDIAG  =      T    sub-space diagonalisation (order eigenvalues)
   LSUBROT=      F    optimize rotation matrix (better conditioning)
   TURBO    =      0    0=normal 1=particle mesh
   IRESTART =      0    0=no restart 2=restart with 2 vectors
   NREBOOT  =      0    no. of reboots
   NMIN     =      0    reboot dimension
   EREF     =   0.00    reference energy to select bands
   IMIX   =      4    mixing-type and parameters
     AMIX     =   0.40;   BMIX     =  1.00
     AMIX_MAG =   1.60;   BMIX_MAG =  1.00
     AMIN     =   0.10
     WC   =   100.;   INIMIX=   1;  MIXPRE=   1;  MAXMIX= -45

 Intra band minimization:
   WEIMIN = 0.0000     energy-eigenvalue tresh-hold
   EBREAK =  0.16E-06  absolut break condition
   DEPER  =   0.30     relativ break condition  

   TIME   =   0.40     timestep for ELM

  volume/ion in A,a.u.               =      20.14       135.91
  Fermi-wavevector in a.u.,A,eV,Ry     =   0.955150  1.804971 12.412741  0.912311
  Thomas-Fermi vector in A             =   2.083961
 
 Write flags
   LWAVE        =      T    write WAVECAR
   LDOWNSAMPLE  =      F    k-point downsampling of WAVECAR
   LCHARG       =      T    write CHGCAR
   LVTOT        =      F    write LOCPOT, total local potential
   LVHAR        =      F    write LOCPOT, Hartree potential only
   LELF         =      F    write electronic localiz. function (ELF)
   LORBIT       =      0    0 simple, 1 ext, 2 COOP (PROOUT), +10 PAW based schemes


 Dipole corrections
   LMONO  =      F    monopole corrections only (constant potential shift)
   LDIPOL =      F    correct potential (dipole corrections)
   IDIPOL =      0    1-x, 2-y, 3-z, 4-all directions 
   EPSILON=  1.0000000 bulk dielectric constant

 Exchange correlation treatment:
   GGA     =    --    GGA type
   LEXCH   =     8    internal setting for exchange type
   LIBXC   =     F    Libxc                    
   VOSKOWN =     0    Vosko Wilk Nusair interpolation
   LHFCALC =     F    Hartree Fock is set to
   LHFONE  =     F    Hartree Fock one center treatment
   AEXX    =    0.0000 exact exchange contribution

 Linear response parameters
   LEPSILON=     F    determine dielectric tensor
   LRPA    =     F    only Hartree local field effects (RPA)
   LNABLA  =     F    use nabla operator in PAW spheres
   LVEL    =     F    velocity operator in full k-point grid
   CSHIFT  =0.1000    complex shift for real part using Kramers Kronig
   OMEGAMAX=  -1.0    maximum frequency
   DEG_THRESHOLD= 0.2000000E-02 threshold for treating states as degnerate
   RTIME   =   -0.100 relaxation time in fs
  (WPLASMAI=    0.000 imaginary part of plasma frequency in eV, 0.658/RTIME)
   DFIELD  = 0.0000000 0.0000000 0.0000000 field for delta impulse in time
 
  Optional k-point grid parameters
   LKPOINTS_OPT  =     F    use optional k-point grid
   KPOINTS_OPT_MODE=     1    mode for optional k-point grid
 
 Orbital magnetization related:
   ORBITALMAG=     F  switch on orbital magnetization
   LCHIMAG   =     F  perturbation theory with respect to B field
   DQ        =  0.001000  dq finite difference perturbation B field
   LLRAUG    =     F  two centre corrections for induced B field
   LBONE     =     F  B-component reconstruction in AE one-centre
   LVGVCALC  =     T  calculate vGv susceptibility
   LVGVAPPL  =     F  apply vGv susceptibility instead of pGv for G=0

 Random number generation:
   RANDOM_GENERATOR = DEFAULT
   PCG_SEED         = not used


--------------------------------------------------------------------------------------------------------


 Static calculation
 charge density and potential will be updated during run
 non-spin polarized calculation
 RMM-DIIS sequential band-by-band and
  variant of blocked Davidson during initial phase
 perform sub-space diagonalisation
    before iterative eigenvector-optimisation
 modified Broyden-mixing scheme, WC =      100.0
 initial mixing is a Kerker type mixing with AMIX =  0.4000 and BMIX =      1.0000
 Hartree-type preconditioning will be used
 using additional bands           33
 real space projection scheme for non local part
 use partial core corrections
 calculate Harris-corrections to forces 
   (improved forces if not selfconsistent)
 use gradient corrections 
 use of overlap-Matrix (Vanderbilt PP)
 Gauss-broadening in eV      SIGMA  =   0.10


--------------------------------------------------------------------------------------------------------


  energy-cutoff  :      250.00
  volume of cell :     1288.99
      direct lattice vectors                 reciprocal lattice vectors
    10.882247650  0.000000000  0.000000000     0.091892781  0.000075067  0.000100875
    -0.008890740 10.883574820  0.000000000     0.000000000  0.091881575 -0.000060962
    -0.011952940  0.007220870 10.883288090     0.000000000  0.000000000  0.091883996

  length of vectors
    10.882247650 10.883578451 10.883297049     0.091892867  0.091881596  0.091883996


 
 old parameters found on file WAVECAR:
  energy-cutoff  :      250.00
  volume of cell :     1289.45
      direct lattice vectors                 reciprocal lattice vectors
    10.883581090  0.000000000  0.000000000     0.091881522  0.000073887  0.000098897
    -0.008753030 10.884734530  0.000000000     0.000000000  0.091871786 -0.000060087
    -0.011721380  0.007118830 10.884623750     0.000000000  0.000000000  0.091872721

  length of vectors

 
 k-points in units of 2pi/SCALE and weight: K-Points                                
   0.02297320  0.02298916  0.02298098       0.250
   0.02297320 -0.02295163  0.02301146       0.250
  -0.02297320  0.02295163  0.02293054       0.250
  -0.02297320 -0.02298916  0.02296102       0.250
 
 k-points in reciprocal lattice and weights: K-Points                                
   0.25000000  0.25000000  0.25000000       0.250
   0.25000000 -0.25000000  0.25000000       0.250
  -0.25000000  0.25000000  0.25000000       0.250
  -0.25000000 -0.25000000  0.25000000       0.250
 
 position of ions in fractional coordinates (direct lattice) 
   0.99795404  0.00539776  0.99984074
   0.25911232  0.25614335  0.00156841
   0.24906062  0.00675984  0.25443230
   0.00647664  0.25654347  0.25222605
   0.12950519  0.12701907  0.12339733
   0.38129548  0.37693363  0.12959434
   0.36669537  0.13341523  0.38416581
   0.13634307  0.37188891  0.36690981
   0.00783144  0.00357637  0.50439697
   0.24743179  0.26085261  0.51554841
   0.25102464  0.00646265  0.74747359
   0.99650838  0.25435908  0.76541891
   0.12424335  0.13858644  0.63808054
   0.38205759  0.38442537  0.62727980
   0.37640702  0.13283778  0.86599528
   0.13004046  0.37540529  0.88143443
   0.00398018  0.49763160  0.00821582
   0.25185294  0.74625895  0.00748987
   0.25951157  0.50083364  0.25674676
   0.01340738  0.75024849  0.26070801
   0.13281933  0.62380258  0.13586361
   0.37338736  0.87509527  0.13090672
   0.39152157  0.62849724  0.37536384
   0.13488948  0.88028340  0.38665643
   0.00818475  0.49733641  0.49756638
   0.26637461  0.75133591  0.50097424
   0.25196230  0.50540664  0.75372222
   0.00854992  0.74856702  0.74932394
   0.13388433  0.62959931  0.62481691
   0.38040377  0.88389073  0.62882993
   0.37669637  0.62413299  0.88080216
   0.12920621  0.87475433  0.87471154
   0.49627719  0.00454095  0.00446481
   0.74713546  0.25313786  0.00876859
   0.76531973  0.00434675  0.24956232
   0.50113520  0.26057903  0.26631091
   0.62660300  0.13111981  0.13498099
   0.87383654  0.37450605  0.13543889
   0.88588578  0.13043425  0.37892689
   0.63338822  0.38266144  0.37598533
   0.49684118  0.00163214  0.49886186
   0.76121192  0.25738364  0.50187625
   0.74056000  0.00393631  0.75394813
   0.50080989  0.25713458  0.74682621
   0.62813267  0.13540060  0.62270602
   0.88001854  0.38517507  0.63159348
   0.86244798  0.12325596  0.88686370
   0.62742903  0.37401781  0.87427934
   0.50049272  0.50445451  0.99784121
   0.76015305  0.75769784  0.00218631
   0.75595929  0.50556197  0.25009396
   0.51087529  0.74406930  0.24745940
   0.63154892  0.62619099  0.12191548
   0.88761128  0.87954071  0.13253610
   0.88030171  0.62915531  0.37870814
   0.63285461  0.88144806  0.37331173
   0.50436084  0.50955635  0.50585463
   0.74965225  0.75273449  0.50089334
   0.75347193  0.50317374  0.75390731
   0.49934669  0.76091389  0.76008495
   0.62702114  0.63318186  0.62785763
   0.87744509  0.87870846  0.62972516
   0.87819897  0.61878359  0.88278507
   0.61945790  0.87710961  0.88382511
 
 position of ions in cartesian coordinates  (Angst):
  10.84798395  0.06596664 10.88155487
   2.81742840  2.78776661  0.01706949
   2.70723803  0.07540849  2.76906004
   0.06518469  2.79393133  2.74504880
   1.40670332  1.38331254  1.34296870
   4.14445161  4.10332118  1.41041253
   3.98469177  1.45480866  4.18098722
   1.47602704  4.05013021  3.99318517
   0.07916289  0.04256584  5.48949756
   2.68413249  2.84273162  5.61086184
   2.72272029  0.07573412  8.13497047
  10.83284050  2.77386311  8.33027452
   1.34318786  1.51292336  6.94441435
   4.14672962  4.18845180  6.82686679
   4.08462221  1.45200321  9.42487615
   1.40125915  4.09211632  9.59290481
   0.03879079  5.41607005  0.08941515
   2.73400173  8.12201915  0.08151439
   2.81654755  5.45271438  2.79424895
   0.13611599  8.16726807  2.83736038
   1.43820286  6.79018308  1.47864284
   4.05394879  9.52511011  1.42469550
   4.25056013  6.84300721  4.08519277
   1.45545271  9.58342227  4.20809329
   0.07869938  5.41639086  5.41515830
   2.88608641  8.18083805  5.45224698
   2.72841350  5.50607347  8.20297611
   0.07743040  8.15249594  8.15510831
   1.44389644  6.85680290  6.80006246
   4.12427323  9.62443160  6.84373724
   4.08322604  6.79915827  9.58602366
   1.38782137  9.52677039  9.51973773
   5.40051753  0.04945404  0.04859181
   8.12815772  2.75510816  0.09543114
   8.32537718  0.04911028  2.71605864
   5.44797740  2.83795435  2.89833834
   6.81606983  1.42802697  1.46903702
   9.50435708  4.07694261  1.47402045
   9.63473954  1.42232715  4.12397055
   6.88479117  4.16743937  4.09195666
   5.40077144  0.02136572  5.42925734
   8.27540941  2.80487814  5.46206382
   8.04991038  0.04828531  8.20543465
   5.43872435  2.80393616  8.12792479
   6.82684828  1.47813899  6.77708906
   9.56560579  4.19664233  6.87381384
   9.37367603  1.34786938  9.65199316
   6.81406257  4.07696393  9.51503393
   5.43007363  5.49747369 10.85979341
   8.26541108  8.24647694  0.02379424
   8.21905205  5.50412738  2.72184463
   5.54989824  8.09992077  2.69317191
   6.86564722  6.81607682  1.32684128
   9.64980177  9.57350413  1.44242852
   9.56954093  6.85019345  4.12158978
   6.87458173  9.59600152  4.06285915
   5.47800281  5.54944732  5.50536167
   8.14522191  8.19605906  5.45136648
   8.18598311  5.48177286  8.20499041
   5.41816399  8.28695169  8.27222351
   6.81026514  6.89581583  6.83315545
   9.53323533  9.56803639  6.85348031
   9.54072539  6.74095197  9.60760426
   6.72273181  9.55247006  9.61892324
 


--------------------------------------------------------------------------------------------------------


 k-point   1 :   0.2500 0.2500 0.2500  plane waves:   11569
 k-point   2 :   0.2500-0.2500 0.2500  plane waves:   11571
 k-point   3 :  -0.2500 0.2500 0.2500  plane waves:   11572
 k-point   4 :  -0.2500-0.2500 0.2500  plane waves:   11573

 maximum and minimum number of plane-waves per node :       429      397

 maximum number of plane-waves:     11573
 maximum index in each direction: 
   IXMAX=   14   IYMAX=   14   IZMAX=   13
   IXMIN=  -14   IYMIN=  -14   IZMIN=  -14


 real space projection operators:
  total allocation   :       3492.44 KBytes
  max/ min on nodes  :        173.19         76.69


 parallel 3D FFT for wavefunctions:
    minimum data exchange during FFTs selected (reduces bandwidth)
 parallel 3D FFT for charge:
    minimum data exchange during FFTs selected (reduces bandwidth)


 total amount of memory used by VASP MPI-rank0    37831. kBytes
=======================================================================

   base      :      30000. kBytes
   nonlr-proj:       1202. kBytes
   fftplans  :        841. kBytes
   grid      :       1174. kBytes
   one-center:          9. kBytes
   wavefun   :       4605. kBytes
 
     INWAV:  cpu time     20.4285: real time     20.4737
 Broyden mixing: mesh for mixing (old mesh)
   NGX = 29   NGY = 29   NGZ = 29
  (NGX  = 84   NGY  = 84   NGZ  = 84)
  gives a total of  24389 points

 initial charge density was supplied:
 number of electron     255.9999966 magnetization 
 keeping initial charge density in first step


--------------------------------------------------------------------------------------------------------


 Maximum index for non-local projection operator          112
 Maximum index for augmentation-charges          186 (set IRDMAX)


--------------------------------------------------------------------------------------------------------


 First call to EWALD:  gamma=   0.163
 Maximum number of real-space cells 3x 3x 3
 Maximum number of reciprocal cells 3x 3x 3

    FEWALD:  cpu time      0.1140: real time      0.1142


--------------------------------------- Ionic step        1  -------------------------------------------




--------------------------------------- Iteration      1(   1)  ---------------------------------------


    POTLOK:  cpu time      0.4876: real time      0.4891
    SETDIJ:  cpu time      0.1415: real time      0.1419
     EDDAV:  cpu time     38.5940: real time     38.6811
       DOS:  cpu time      0.1298: real time      0.1301
    CHARGE:  cpu time      2.7865: real time      2.7927
    MIXING:  cpu time      0.0204: real time      0.0205
    --------------------------------------------
      LOOP:  cpu time     42.1598: real time     42.2554

 eigenvalue-minimisations  :  1392
 total energy-change (2. order) :-0.3449084E+03  (-0.7974882E-01)
 number of electron     255.9999984 magnetization 
 augmentation part      -14.6491924 magnetization 

 Broyden mixing:
  rms(total) = 0.48732E-01    rms(broyden)= 0.48729E-01
  rms(prec ) = 0.51261E-01
  weight for this iteration     100.00

 Free energy of the ion-electron system (eV)
  ---------------------------------------------------
  alpha Z        PSCENC =       106.97053179
  Ewald energy   TEWEN  =     -7294.27174292
  -Hartree energ DENC   =      -482.83421488
  -exchange      EXHF   =         0.00000000
  -V(xc)+E(xc)   XCENC  =      -575.61240513
  PAW double counting   =     31890.65502804   -30771.86902170
  entropy T*S    EENTRO =        -0.00000000
  eigenvalues    EBANDS =       186.10148895
  atomic energy  EATOM  =      6595.95197522
  Solvation  Ediel_sol  =         0.00000000
  ---------------------------------------------------
  free energy    TOTEN  =      -344.90836065 eV

  energy without entropy =     -344.90836065  energy(sigma->0) =     -344.90836065


--------------------------------------------------------------------------------------------------------




--------------------------------------- Iteration      1(   2)  ---------------------------------------


    POTLOK:  cpu time      0.0471: real time      0.0484
    SETDIJ:  cpu time      0.0383: real time      0.0384
    EDDIAG:  cpu time      6.6586: real time      6.6739
  RMM-DIIS:  cpu time     20.8954: real time     20.9416
    ORTHCH:  cpu time      0.1955: real time      0.1959
       DOS:  cpu time      0.1357: real time      0.1505
    CHARGE:  cpu time      2.6748: real time      2.6809
    MIXING:  cpu time      0.0343: real time      0.0344
    --------------------------------------------
      LOOP:  cpu time     30.6798: real time     30.7640

 eigenvalue-minimisations  :  1302
 total energy-change (2. order) :-0.3982002E-02  (-0.4414574E-02)
 number of electron     255.9999984 magnetization 
 augmentation part      -14.6494613 magnetization 

 Broyden mixing:
  rms(total) = 0.17817E-01    rms(broyden)= 0.17815E-01
  rms(prec ) = 0.21125E-01
  weight for this iteration     100.00

 eigenvalues of (default mixing * dielectric matrix)
  average eigenvalue GAMMA=   1.3398
  1.3398

 Free energy of the ion-electron system (eV)
  ---------------------------------------------------
  alpha Z        PSCENC =       106.97053179
  Ewald energy   TEWEN  =     -7294.27174292
  -Hartree energ DENC   =      -482.77206595
  -exchange      EXHF   =         0.00000000
  -V(xc)+E(xc)   XCENC  =      -575.61282957
  PAW double counting   =     31909.29945916   -30790.51468112
  entropy T*S    EENTRO =        -0.00000000
  eigenvalues    EBANDS =       186.03701076
  atomic energy  EATOM  =      6595.95197522
  Solvation  Ediel_sol  =         0.00000000
  ---------------------------------------------------
  free energy    TOTEN  =      -344.91234265 eV

  energy without entropy =     -344.91234265  energy(sigma->0) =     -344.91234265


--------------------------------------------------------------------------------------------------------




--------------------------------------- Iteration      1(   3)  ---------------------------------------


    POTLOK:  cpu time      0.1366: real time      0.1370
    SETDIJ:  cpu time      0.0019: real time      0.0019
    EDDIAG:  cpu time      5.6135: real time      5.6264
  RMM-DIIS:  cpu time     29.2659: real time     29.3319
    ORTHCH:  cpu time      0.3856: real time      0.3865
       DOS:  cpu time      0.1088: real time      0.1090
    CHARGE:  cpu time      1.9477: real time      1.9521
    MIXING:  cpu time      0.0003: real time      0.0003
    --------------------------------------------
      LOOP:  cpu time     37.4603: real time     37.5451

 eigenvalue-minimisations  :  1504
 total energy-change (2. order) :-0.3978594E-03  (-0.7056268E-03)
 number of electron     255.9999984 magnetization 
 augmentation part      -14.6501065 magnetization 

 Broyden mixing:
  rms(total) = 0.79738E-02    rms(broyden)= 0.79732E-02
  rms(prec ) = 0.95198E-02
  weight for this iteration     100.00

 eigenvalues of (default mixing * dielectric matrix)
  average eigenvalue GAMMA=   1.6414
  1.6414  1.6414

 Free energy of the ion-electron system (eV)
  ---------------------------------------------------
  alpha Z        PSCENC =       106.97053179
  Ewald energy   TEWEN  =     -7294.27174292
  -Hartree energ DENC   =      -482.71271886
  -exchange      EXHF   =         0.00000000
  -V(xc)+E(xc)   XCENC  =      -575.61419644
  PAW double counting   =     31918.14869623   -30799.36535406
  entropy T*S    EENTRO =        -0.00000000
  eigenvalues    EBANDS =       185.98006854
  atomic energy  EATOM  =      6595.95197522
  Solvation  Ediel_sol  =         0.00000000
  ---------------------------------------------------
  free energy    TOTEN  =      -344.91274051 eV

  energy without entropy =     -344.91274051  energy(sigma->0) =     -344.91274051


--------------------------------------------------------------------------------------------------------




--------------------------------------- Iteration      1(   4)  ---------------------------------------


    POTLOK:  cpu time      0.0461: real time      0.0472
    SETDIJ:  cpu time      0.0383: real time      0.0384
    EDDIAG:  cpu time      6.3787: real time      6.3933
  RMM-DIIS:  cpu time     34.1112: real time     34.1887
    ORTHCH:  cpu time      0.4489: real time      0.4499
       DOS:  cpu time      0.1157: real time      0.1160
    CHARGE:  cpu time      3.1719: real time      3.1790
    MIXING:  cpu time      0.0332: real time      0.0333
    --------------------------------------------
      LOOP:  cpu time     44.3439: real time     44.4459

 eigenvalue-minimisations  :  1565
 total energy-change (2. order) :-0.8028540E-04  (-0.1326220E-03)
 number of electron     255.9999984 magnetization 
 augmentation part      -14.6502838 magnetization 

 Broyden mixing:
  rms(total) = 0.41098E-02    rms(broyden)= 0.41096E-02
  rms(prec ) = 0.45937E-02
  weight for this iteration     100.00

 eigenvalues of (default mixing * dielectric matrix)
  average eigenvalue GAMMA=   1.7682
  1.0123  2.3940  1.8983

 Free energy of the ion-electron system (eV)
  ---------------------------------------------------
  alpha Z        PSCENC =       106.97053179
  Ewald energy   TEWEN  =     -7294.27174292
  -Hartree energ DENC   =      -482.68780056
  -exchange      EXHF   =         0.00000000
  -V(xc)+E(xc)   XCENC  =      -575.61435180
  PAW double counting   =     31915.70785997   -30796.92668031
  entropy T*S    EENTRO =        -0.00000000
  eigenvalues    EBANDS =       185.95738783
  atomic energy  EATOM  =      6595.95197522
  Solvation  Ediel_sol  =         0.00000000
  ---------------------------------------------------
  free energy    TOTEN  =      -344.91282079 eV

  energy without entropy =     -344.91282079  energy(sigma->0) =     -344.91282079


--------------------------------------------------------------------------------------------------------




--------------------------------------- Iteration      1(   5)  ---------------------------------------


    POTLOK:  cpu time      0.3696: real time      0.3704
    SETDIJ:  cpu time      0.1359: real time      0.1362
    EDDIAG:  cpu time      6.2681: real time      6.2824
  RMM-DIIS:  cpu time     21.4540: real time     21.5024
    ORTHCH:  cpu time      0.1943: real time      0.1948
       DOS:  cpu time      0.0014: real time      0.0014
    --------------------------------------------
      LOOP:  cpu time     28.4233: real time     28.4876

 eigenvalue-minimisations  :  1056
 total energy-change (2. order) :-0.1696167E-04  (-0.2358597E-04)
 number of electron     255.9999984 magnetization 
 augmentation part      -14.6502838 magnetization 

 Free energy of the ion-electron system (eV)
  ---------------------------------------------------
  alpha Z        PSCENC =       106.97053179
  Ewald energy   TEWEN  =     -7294.27174292
  -Hartree energ DENC   =      -482.67713006
  -exchange      EXHF   =         0.00000000
  -V(xc)+E(xc)   XCENC  =      -575.61439062
  PAW double counting   =     31909.99059807   -30791.21099313
  entropy T*S    EENTRO =        -0.00000000
  eigenvalues    EBANDS =       185.94831390
  atomic energy  EATOM  =      6595.95197522
  Solvation  Ediel_sol  =         0.00000000
  ---------------------------------------------------
  free energy    TOTEN  =      -344.91283775 eV

  energy without entropy =     -344.91283775  energy(sigma->0) =     -344.91283775


--------------------------------------------------------------------------------------------------------




 average (electrostatic) potential at core
  the test charge radii are     0.9892
  (the norm of the test charge is              1.0000)
       1 -83.3019       2 -83.3246       3 -83.3319       4 -83.3205       5 -83.3339
       6 -83.3359       7 -83.3479       8 -83.3551       9 -83.3170      10 -83.3687
      11 -83.3222      12 -83.3438      13 -83.3187      14 -83.3439      15 -83.3343
      16 -83.3159      17 -83.3241      18 -83.3086      19 -83.3479      20 -83.3407
      21 -83.3272      22 -83.3350      23 -83.3573      24 -83.3136      25 -83.3373
      26 -83.3441      27 -83.3199      28 -83.2944      29 -83.3101      30 -83.3062
      31 -83.2987      32 -83.3652      33 -83.3316      34 -83.3113      35 -83.3364
      36 -83.3589      37 -83.3307      38 -83.3136      39 -83.3182      40 -83.3332
      41 -83.3169      42 -83.3469      43 -83.3285      44 -83.3040      45 -83.3078
      46 -83.3284      47 -83.3243      48 -83.3503      49 -83.3198      50 -83.3633
      51 -83.3005      52 -83.3133      53 -83.2902      54 -83.3194      55 -83.3159
      56 -83.3387      57 -83.3117      58 -83.2761      59 -83.3441      60 -83.3351
      61 -83.3505      62 -83.3260      63 -83.3527      64 -83.2728
 
 
 
 E-fermi :   5.9916     XC(G=0):  -9.3895     alpha+bet :-11.9086

 Fermi energy:         5.9915536819

 k-point     1 :       0.2500    0.2500    0.2500
  band No.  band energies     occupation 
      1      -5.9733      2.00000
      2      -5.4914      2.00000
      3      -5.4469      2.00000
      4      -5.3613      2.00000
      5      -4.9786      2.00000
      6      -4.9340      2.00000
      7      -4.8377      2.00000
      8      -4.4914      2.00000
      9      -4.4339      2.00000
     10      -4.4070      2.00000
     11      -4.3134      2.00000
     12      -4.0504      2.00000
     13      -4.0157      2.00000
     14      -3.9868      2.00000
     15      -3.9374      2.00000
     16      -3.9000      2.00000
     17      -3.8734      2.00000
     18      -3.7640      2.00000
     19      -3.7294      2.00000
     20      -3.6930      2.00000
     21      -3.3074      2.00000
     22      -3.2770      2.00000
     23      -3.1678      2.00000
     24      -2.9228      2.00000
     25      -2.9119      2.00000
     26      -2.8445      2.00000
     27      -2.7710      2.00000
     28      -2.7518      2.00000
     29      -2.6851      2.00000
     30      -2.6624      2.00000
     31      -2.6438      2.00000
     32      -2.6035      2.00000
     33      -1.2239      2.00000
     34      -1.2120      2.00000
     35      -1.1885      2.00000
     36      -1.1613      2.00000
     37      -1.1455      2.00000
     38      -1.1178      2.00000
     39      -1.0723      2.00000
     40      -1.0463      2.00000
     41      -1.0147      2.00000
     42      -0.9563      2.00000
     43      -0.9270      2.00000
     44      -0.9136      2.00000
     45      -0.8819      2.00000
     46      -0.8280      2.00000
     47      -0.7768      2.00000
     48      -0.1524      2.00000
     49      -0.1281      2.00000
     50      -0.1018      2.00000
     51      -0.0569      2.00000
     52      -0.0338      2.00000
     53      -0.0169      2.00000
     54       0.0172      2.00000
     55       0.7983      2.00000
     56       0.8562      2.00000
     57       0.8734      2.00000
     58       1.1205      2.00000
     59       1.1587      2.00000
     60       1.1753      2.00000
     61       1.6694      2.00000
     62       1.6915      2.00000
     63       1.7162      2.00000
     64       1.7280      2.00000
     65       1.7591      2.00000
     66       1.7693      2.00000
     67       1.7853      2.00000
     68       1.8096      2.00000
     69       1.8340      2.00000
     70       2.3186      2.00000
     71       2.3376      2.00000
     72       2.3576      2.00000
     73       2.3861      2.00000
     74       2.4182      2.00000
     75       2.4463      2.00000
     76       2.4619      2.00000
     77       2.4973      2.00000
     78       2.5175      2.00000
     79       2.5496      2.00000
     80       2.5594      2.00000
     81       2.6105      2.00000
     82       2.7611      2.00000
     83       2.8032      2.00000
     84       2.8210      2.00000
     85       2.8472      2.00000
     86       2.8853      2.00000
     87       2.9023      2.00000
     88       3.0626      2.00000
     89       3.0919      2.00000
     90       3.1017      2.00000
     91       3.1170      2.00000
     92       3.1338      2.00000
     93       3.1569      2.00000
     94       3.4063      2.00000
     95       3.4385      2.00000
     96       3.4537      2.00000
     97       3.5027      2.00000
     98       3.5312      2.00000
     99       3.5468      2.00000
    100       3.5593      2.00000
    101       3.5990      2.00000
    102       3.6274      2.00000
    103       3.7795      2.00000
    104       3.8190      2.00000
    105       3.8550      2.00000
    106       3.8735      2.00000
    107       3.8945      2.00000
    108       3.9030      2.00000
    109       3.9330      2.00000
    110       3.9530      2.00000
    111       3.9684      2.00000
    112       4.1691      2.00000
    113       4.2206      2.00000
    114       4.2566      2.00000
    115       4.2888      2.00000
    116       4.4342      2.00000
    117       4.4765      2.00000
    118       4.4948      2.00000
    119       4.5254      2.00000
    120       4.5657      2.00000
    121       4.6073      2.00000
    122       4.6954      2.00000
    123       4.7140      2.00000
    124       4.9816      2.00000
    125       5.0349      2.00000
    126       5.0730      2.00000
    127       5.4965      2.00000
    128       5.5099      2.00000
    129       6.6209      0.00000
    130       6.6643      0.00000
    131       6.7088      0.00000
    132       7.0818      0.00000
    133       7.1133      0.00000
    134       7.1533      0.00000
    135       7.3766      0.00000
    136       7.5706      0.00000
    137       7.5807      0.00000
    138       7.6187      0.00000
    139       7.6634      0.00000
    140       7.7281      0.00000
    141       7.7537      0.00000
    142       7.8583      0.00000
    143       7.8864      0.00000
    144       7.9092      0.00000
    145       7.9435      0.00000
    146       7.9595      0.00000
    147       8.0061      0.00000
    148       8.0909      0.00000
    149       8.1304      0.00000
    150       8.1402      0.00000
    151       8.1702      0.00000
    152       8.2107      0.00000
    153       8.2316      0.00000
    154       8.2633      0.00000
    155       8.4391      0.00000
    156       8.4537      0.00000
    157       8.4761      0.00000
    158       8.4993      0.00000
    159       8.5886      0.00000
    160       8.6121      0.00000
    161       8.6347      0.00000

 k-point     2 :       0.2500   -0.2500    0.2500
  band No.  band energies     occupation 
      1      -5.9731      2.00000
      2      -5.4922      2.00000
      3      -5.4462      2.00000
      4      -5.3627      2.00000
      5      -4.9769      2.00000
      6      -4.9356      2.00000
      7      -4.8357      2.00000
      8      -4.4786      2.00000
      9      -4.4444      2.00000
     10      -4.4014      2.00000
     11      -4.3141      2.00000
     12      -4.0838      2.00000
     13      -4.0048      2.00000
     14      -3.9789      2.00000
     15      -3.9527      2.00000
     16      -3.8995      2.00000
     17      -3.8656      2.00000
     18      -3.7475      2.00000
     19      -3.7294      2.00000
     20      -3.6950      2.00000
     21      -3.3009      2.00000
     22      -3.2693      2.00000
     23      -3.1733      2.00000
     24      -2.9372      2.00000
     25      -2.9032      2.00000
     26      -2.8695      2.00000
     27      -2.7843      2.00000
     28      -2.7118      2.00000
     29      -2.6918      2.00000
     30      -2.6732      2.00000
     31      -2.6317      2.00000
     32      -2.6012      2.00000
     33      -1.2413      2.00000
     34      -1.2235      2.00000
     35      -1.1809      2.00000
     36      -1.1552      2.00000
     37      -1.1383      2.00000
     38      -1.1201      2.00000
     39      -1.0840      2.00000
     40      -1.0567      2.00000
     41      -0.9962      2.00000
     42      -0.9441      2.00000
     43      -0.9238      2.00000
     44      -0.8949      2.00000
     45      -0.8780      2.00000
     46      -0.8436      2.00000
     47      -0.7891      2.00000
     48      -0.1625      2.00000
     49      -0.1401      2.00000
     50      -0.0814      2.00000
     51      -0.0632      2.00000
     52      -0.0268      2.00000
     53      -0.0146      2.00000
     54       0.0274      2.00000
     55       0.7974      2.00000
     56       0.8298      2.00000
     57       0.8757      2.00000
     58       1.1363      2.00000
     59       1.1587      2.00000
     60       1.1672      2.00000
     61       1.6714      2.00000
     62       1.7039      2.00000
     63       1.7153      2.00000
     64       1.7298      2.00000
     65       1.7409      2.00000
     66       1.7715      2.00000
     67       1.7924      2.00000
     68       1.8129      2.00000
     69       1.8349      2.00000
     70       2.2965      2.00000
     71       2.3280      2.00000
     72       2.3508      2.00000
     73       2.3934      2.00000
     74       2.4272      2.00000
     75       2.4458      2.00000
     76       2.4631      2.00000
     77       2.4856      2.00000
     78       2.5053      2.00000
     79       2.5595      2.00000
     80       2.5877      2.00000
     81       2.5978      2.00000
     82       2.7768      2.00000
     83       2.8056      2.00000
     84       2.8306      2.00000
     85       2.8361      2.00000
     86       2.8820      2.00000
     87       2.9111      2.00000
     88       3.0802      2.00000
     89       3.0995      2.00000
     90       3.1125      2.00000
     91       3.1242      2.00000
     92       3.1315      2.00000
     93       3.1602      2.00000
     94       3.4132      2.00000
     95       3.4499      2.00000
     96       3.4621      2.00000
     97       3.4898      2.00000
     98       3.5135      2.00000
     99       3.5448      2.00000
    100       3.5645      2.00000
    101       3.5958      2.00000
    102       3.6200      2.00000
    103       3.7772      2.00000
    104       3.8202      2.00000
    105       3.8425      2.00000
    106       3.8593      2.00000
    107       3.8718      2.00000
    108       3.9051      2.00000
    109       3.9282      2.00000
    110       3.9466      2.00000
    111       3.9657      2.00000
    112       4.1646      2.00000
    113       4.2314      2.00000
    114       4.2601      2.00000
    115       4.2712      2.00000
    116       4.4399      2.00000
    117       4.4726      2.00000
    118       4.5002      2.00000
    119       4.5177      2.00000
    120       4.5480      2.00000
    121       4.5911      2.00000
    122       4.7123      2.00000
    123       4.7312      2.00000
    124       4.9911      2.00000
    125       5.0417      2.00000
    126       5.0677      2.00000
    127       5.5086      2.00000
    128       5.5191      2.00000
    129       6.6472      0.00000
    130       6.6753      0.00000
    131       6.6920      0.00000
    132       7.0895      0.00000
    133       7.1190      0.00000
    134       7.1524      0.00000
    135       7.3797      0.00000
    136       7.5791      0.00000
    137       7.6044      0.00000
    138       7.6279      0.00000
    139       7.6813      0.00000
    140       7.7125      0.00000
    141       7.7429      0.00000
    142       7.8609      0.00000
    143       7.8970      0.00000
    144       7.9124      0.00000
    145       7.9314      0.00000
    146       7.9594      0.00000
    147       8.0040      0.00000
    148       8.0371      0.00000
    149       8.1040      0.00000
    150       8.1233      0.00000
    151       8.1766      0.00000
    152       8.2041      0.00000
    153       8.2240      0.00000
    154       8.2595      0.00000
    155       8.4441      0.00000
    156       8.4562      0.00000
    157       8.4769      0.00000
    158       8.5329      0.00000
    159       8.5709      0.00000
    160       8.5929      0.00000
    161       8.6483      0.00000

 k-point     3 :      -0.2500    0.2500    0.2500
  band No.  band energies     occupation 
      1      -5.9751      2.00000
      2      -5.4761      2.00000
      3      -5.4367      2.00000
      4      -5.3853      2.00000
      5      -4.9659      2.00000
      6      -4.9201      2.00000
      7      -4.8804      2.00000
      8      -4.4984      2.00000
      9      -4.4301      2.00000
     10      -4.3891      2.00000
     11      -4.3116      2.00000
     12      -4.0530      2.00000
     13      -3.9933      2.00000
     14      -3.9550      2.00000
     15      -3.9288      2.00000
     16      -3.9201      2.00000
     17      -3.8844      2.00000
     18      -3.7678      2.00000
     19      -3.7562      2.00000
     20      -3.6958      2.00000
     21      -3.3141      2.00000
     22      -3.2497      2.00000
     23      -3.2035      2.00000
     24      -2.9198      2.00000
     25      -2.9091      2.00000
     26      -2.8351      2.00000
     27      -2.7674      2.00000
     28      -2.7230      2.00000
     29      -2.6875      2.00000
     30      -2.6673      2.00000
     31      -2.6477      2.00000
     32      -2.6182      2.00000
     33      -1.2468      2.00000
     34      -1.2305      2.00000
     35      -1.1818      2.00000
     36      -1.1676      2.00000
     37      -1.1385      2.00000
     38      -1.1197      2.00000
     39      -1.0944      2.00000
     40      -1.0325      2.00000
     41      -0.9860      2.00000
     42      -0.9649      2.00000
     43      -0.9235      2.00000
     44      -0.9083      2.00000
     45      -0.8735      2.00000
     46      -0.8169      2.00000
     47      -0.7666      2.00000
     48      -0.1772      2.00000
     49      -0.1450      2.00000
     50      -0.0981      2.00000
     51      -0.0598      2.00000
     52      -0.0263      2.00000
     53       0.0027      2.00000
     54       0.0167      2.00000
     55       0.8075      2.00000
     56       0.8365      2.00000
     57       0.8730      2.00000
     58       1.1381      2.00000
     59       1.1587      2.00000
     60       1.1737      2.00000
     61       1.6583      2.00000
     62       1.6978      2.00000
     63       1.7094      2.00000
     64       1.7341      2.00000
     65       1.7527      2.00000
     66       1.7754      2.00000
     67       1.7900      2.00000
     68       1.8133      2.00000
     69       1.8349      2.00000
     70       2.3132      2.00000
     71       2.3219      2.00000
     72       2.3517      2.00000
     73       2.3850      2.00000
     74       2.4073      2.00000
     75       2.4478      2.00000
     76       2.4676      2.00000
     77       2.5009      2.00000
     78       2.5133      2.00000
     79       2.5361      2.00000
     80       2.5926      2.00000
     81       2.6045      2.00000
     82       2.7721      2.00000
     83       2.7968      2.00000
     84       2.8304      2.00000
     85       2.8521      2.00000
     86       2.8695      2.00000
     87       2.8986      2.00000
     88       3.0795      2.00000
     89       3.0901      2.00000
     90       3.0962      2.00000
     91       3.1143      2.00000
     92       3.1313      2.00000
     93       3.1417      2.00000
     94       3.4164      2.00000
     95       3.4474      2.00000
     96       3.4788      2.00000
     97       3.4865      2.00000
     98       3.5153      2.00000
     99       3.5609      2.00000
    100       3.5760      2.00000
    101       3.5978      2.00000
    102       3.6241      2.00000
    103       3.7764      2.00000
    104       3.8343      2.00000
    105       3.8464      2.00000
    106       3.8652      2.00000
    107       3.8961      2.00000
    108       3.9087      2.00000
    109       3.9215      2.00000
    110       3.9382      2.00000
    111       3.9684      2.00000
    112       4.1707      2.00000
    113       4.2278      2.00000
    114       4.2412      2.00000
    115       4.2596      2.00000
    116       4.4553      2.00000
    117       4.4581      2.00000
    118       4.5072      2.00000
    119       4.5256      2.00000
    120       4.5724      2.00000
    121       4.6042      2.00000
    122       4.7017      2.00000
    123       4.7241      2.00000
    124       4.9902      2.00000
    125       5.0168      2.00000
    126       5.0838      2.00000
    127       5.5013      2.00000
    128       5.5180      2.00000
    129       6.6215      0.00000
    130       6.6538      0.00000
    131       6.6978      0.00000
    132       7.0900      0.00000
    133       7.1289      0.00000
    134       7.1626      0.00000
    135       7.3838      0.00000
    136       7.5626      0.00000
    137       7.6016      0.00000
    138       7.6320      0.00000
    139       7.6724      0.00000
    140       7.7388      0.00000
    141       7.7528      0.00000
    142       7.8527      0.00000
    143       7.8987      0.00000
    144       7.9117      0.00000
    145       7.9445      0.00000
    146       7.9585      0.00000
    147       8.0029      0.00000
    148       8.0807      0.00000
    149       8.1256      0.00000
    150       8.1385      0.00000
    151       8.1761      0.00000
    152       8.2020      0.00000
    153       8.2161      0.00000
    154       8.2536      0.00000
    155       8.4364      0.00000
    156       8.4597      0.00000
    157       8.4769      0.00000
    158       8.5217      0.00000
    159       8.5590      0.00000
    160       8.6071      0.00000
    161       8.6102      0.00000

 k-point     4 :      -0.2500   -0.2500    0.2500
  band No.  band energies     occupation 
      1      -5.9744      2.00000
      2      -5.4668      2.00000
      3      -5.4492      2.00000
      4      -5.3874      2.00000
      5      -4.9593      2.00000
      6      -4.9271      2.00000
      7      -4.8747      2.00000
      8      -4.4751      2.00000
      9      -4.4165      2.00000
     10      -4.3994      2.00000
     11      -4.3331      2.00000
     12      -4.0561      2.00000
     13      -4.0008      2.00000
     14      -3.9578      2.00000
     15      -3.9468      2.00000
     16      -3.9232      2.00000
     17      -3.8687      2.00000
     18      -3.7745      2.00000
     19      -3.7418      2.00000
     20      -3.7059      2.00000
     21      -3.2745      2.00000
     22      -3.2568      2.00000
     23      -3.2065      2.00000
     24      -2.9359      2.00000
     25      -2.8864      2.00000
     26      -2.8528      2.00000
     27      -2.7608      2.00000
     28      -2.7394      2.00000
     29      -2.6923      2.00000
     30      -2.6636      2.00000
     31      -2.6520      2.00000
     32      -2.6076      2.00000
     33      -1.2549      2.00000
     34      -1.2218      2.00000
     35      -1.1836      2.00000
     36      -1.1503      2.00000
     37      -1.1290      2.00000
     38      -1.1127      2.00000
     39      -1.0808      2.00000
     40      -1.0468      2.00000
     41      -1.0070      2.00000
     42      -0.9594      2.00000
     43      -0.9141      2.00000
     44      -0.9085      2.00000
     45      -0.8731      2.00000
     46      -0.8492      2.00000
     47      -0.7734      2.00000
     48      -0.1510      2.00000
     49      -0.1220      2.00000
     50      -0.0934      2.00000
     51      -0.0731      2.00000
     52      -0.0303      2.00000
     53      -0.0165      2.00000
     54       0.0188      2.00000
     55       0.8058      2.00000
     56       0.8418      2.00000
     57       0.8630      2.00000
     58       1.1363      2.00000
     59       1.1525      2.00000
     60       1.1703      2.00000
     61       1.6676      2.00000
     62       1.6973      2.00000
     63       1.7172      2.00000
     64       1.7243      2.00000
     65       1.7519      2.00000
     66       1.7648      2.00000
     67       1.7940      2.00000
     68       1.8079      2.00000
     69       1.8278      2.00000
     70       2.3115      2.00000
     71       2.3360      2.00000
     72       2.3597      2.00000
     73       2.4031      2.00000
     74       2.4164      2.00000
     75       2.4427      2.00000
     76       2.4629      2.00000
     77       2.4981      2.00000
     78       2.5126      2.00000
     79       2.5584      2.00000
     80       2.5654      2.00000
     81       2.6002      2.00000
     82       2.7752      2.00000
     83       2.8230      2.00000
     84       2.8352      2.00000
     85       2.8534      2.00000
     86       2.8659      2.00000
     87       2.8905      2.00000
     88       3.0667      2.00000
     89       3.0914      2.00000
     90       3.1061      2.00000
     91       3.1211      2.00000
     92       3.1419      2.00000
     93       3.1531      2.00000
     94       3.4254      2.00000
     95       3.4466      2.00000
     96       3.4727      2.00000
     97       3.4881      2.00000
     98       3.5056      2.00000
     99       3.5467      2.00000
    100       3.5663      2.00000
    101       3.5940      2.00000
    102       3.6066      2.00000
    103       3.7943      2.00000
    104       3.8162      2.00000
    105       3.8576      2.00000
    106       3.8736      2.00000
    107       3.8799      2.00000
    108       3.8969      2.00000
    109       3.9241      2.00000
    110       3.9454      2.00000
    111       3.9732      2.00000
    112       4.1663      2.00000
    113       4.2186      2.00000
    114       4.2294      2.00000
    115       4.2787      2.00000
    116       4.4389      2.00000
    117       4.4848      2.00000
    118       4.4914      2.00000
    119       4.5258      2.00000
    120       4.5565      2.00000
    121       4.5939      2.00000
    122       4.7085      2.00000
    123       4.7351      2.00000
    124       5.0056      2.00000
    125       5.0342      2.00000
    126       5.0567      2.00000
    127       5.5061      2.00000
    128       5.5175      2.00000
    129       6.6299      0.00000
    130       6.6541      0.00000
    131       6.6982      0.00000
    132       7.0992      0.00000
    133       7.1183      0.00000
    134       7.1441      0.00000
    135       7.3851      0.00000
    136       7.5637      0.00000
    137       7.5903      0.00000
    138       7.6065      0.00000
    139       7.6878      0.00000
    140       7.7162      0.00000
    141       7.7565      0.00000
    142       7.8779      0.00000
    143       7.8960      0.00000
    144       7.9208      0.00000
    145       7.9348      0.00000
    146       7.9551      0.00000
    147       8.0008      0.00000
    148       8.0997      0.00000
    149       8.1178      0.00000
    150       8.1412      0.00000
    151       8.1617      0.00000
    152       8.1992      0.00000
    153       8.2161      0.00000
    154       8.2678      0.00000
    155       8.4431      0.00000
    156       8.4577      0.00000
    157       8.4768      0.00000
    158       8.5245      0.00000
    159       8.5593      0.00000
    160       8.6063      0.00000
    161       8.6256      0.00000


--------------------------------------------------------------------------------------------------------


 soft charge-density along one line, spin component           1
         0         1         2         3         4         5         6         7         8         9
 total charge-density along one line
 
 pseudopotential strength for first ion, spin component:           1
 18.420  25.699   0.001  -0.001  -0.000   0.002  -0.003  -0.001
 25.699  35.860   0.002  -0.002  -0.001   0.003  -0.004  -0.001
  0.001   0.002   4.179  -0.000   0.000   7.788  -0.000   0.000
 -0.001  -0.002  -0.000   4.179   0.000  -0.000   7.788   0.000
 -0.000  -0.001   0.000   0.000   4.179   0.000   0.000   7.788
  0.002   0.003   7.788  -0.000   0.000  14.523  -0.001   0.000
 -0.003  -0.004  -0.000   7.788   0.000  -0.001  14.523   0.000
 -0.001  -0.001   0.000   0.000   7.788   0.000   0.000  14.523
 total augmentation occupancy for first ion, spin component:           1
  6.011  -2.323   0.061   0.138  -0.201  -0.021  -0.050   0.072
 -2.323   1.008  -0.026  -0.084   0.096   0.009   0.026  -0.033
  0.061  -0.026   3.300  -0.160  -0.015  -0.798   0.048   0.007
  0.138  -0.084  -0.160   3.301   0.095   0.048  -0.798  -0.030
 -0.201   0.096  -0.015   0.095   3.366   0.007  -0.030  -0.822
 -0.021   0.009  -0.798   0.048   0.007   0.201  -0.014  -0.002
 -0.050   0.026   0.048  -0.798  -0.030  -0.014   0.201   0.009
  0.072  -0.033   0.007  -0.030  -0.822  -0.002   0.009   0.209


------------------------ aborting loop because EDIFF is reached ----------------------------------------


    CHARGE:  cpu time      2.0618: real time      2.0665
    FORLOC:  cpu time      0.0407: real time      0.0408
    FORNL :  cpu time      9.9697: real time      9.9923
    STRESS:  cpu time     28.1238: real time     28.1873
    FORCOR:  cpu time      0.0649: real time      0.0652
    FORHAR:  cpu time      0.0366: real time      0.0367
    MIXING:  cpu time      0.0004: real time      0.0004
    OFIELD:  cpu time      0.0000: real time      0.0000

  FORCE on cell =-STRESS in cart. coord.  units (eV):
  Direction    XX          YY          ZZ          XY          YZ          ZX
  --------------------------------------------------------------------------------------
  Alpha Z   106.97053   106.97053   106.97053
  Ewald   -2430.96606 -2433.51062 -2429.84024     0.78339    -7.19235     6.84353
  Hartree   160.70163   160.03952   161.93523     0.24973    -1.00338     1.69753
  E(xc)    -811.09781  -811.05864  -811.10056    -0.02749     0.05605    -0.06681
  Local    -943.93841  -940.71936  -946.56426    -1.14743     7.73918    -8.21737
  n-local  2492.59354  2491.84107  2492.59201     0.37781    -1.32780     1.31644
  augment  -372.11051  -372.06986  -372.11611    -0.05710     0.07249    -0.09527
  Kinetic  1808.38548  1808.70989  1808.41174     0.51538     0.49439     0.16128
  Fock        0.00000     0.00000     0.00000     0.00000     0.00000     0.00000
  -------------------------------------------------------------------------------------
  Total      10.53839    10.20253    10.28834     0.69429    -1.16143     1.63933
  in kB      13.09889    12.68143    12.78809     0.86298    -1.44362     2.03763
  external pressure =       12.86 kB  Pullay stress =        0.00 kB


 VOLUME and BASIS-vectors are now :
 -----------------------------------------------------------------------------
  energy-cutoff  :      250.00
  volume of cell :     1288.99
      direct lattice vectors                 reciprocal lattice vectors
    10.882247650  0.000000000  0.000000000     0.091892781  0.000075067  0.000100875
    -0.008890740 10.883574820  0.000000000     0.000000000  0.091881575 -0.000060962
    -0.011952940  0.007220870 10.883288090     0.000000000  0.000000000  0.091883996

  length of vectors
    10.882247650 10.883578451 10.883297049     0.091892867  0.091881596  0.091883996


 FORCES acting on ions
    electron-ion (+dipol)            ewald-force                    non-local-force                 convergence-correction
 -----------------------------------------------------------------------------------------------
   -.476E+01 0.329E+01 0.556E+01   0.414E+01 -.332E+01 -.496E+01   0.149E+01 -.450E+00 -.641E+00   0.134E-02 0.413E-03 -.728E-03
   -.207E+01 0.547E+01 -.228E+01   0.176E+01 -.523E+01 0.191E+01   0.149E+00 -.869E+00 0.471E+00   0.835E-03 0.734E-03 0.697E-06
   -.324E+01 0.153E+01 0.379E+01   0.293E+01 -.155E+01 -.350E+01   0.569E+00 -.295E+00 -.341E+00   0.130E-02 -.373E-04 0.453E-03
   0.869E+00 0.438E+01 0.260E+01   -.944E+00 -.435E+01 -.232E+01   0.193E-02 -.106E+01 -.773E+00   0.617E-03 0.172E-02 0.404E-03
   -.549E+00 0.248E+01 0.419E+01   0.540E+00 -.263E+01 -.401E+01   -.272E+00 0.570E+00 -.361E+00   0.197E-02 0.185E-02 -.371E-03
   -.351E+01 0.307E+01 0.251E+01   0.332E+01 -.292E+01 -.221E+01   0.447E+00 0.164E+00 -.408E+00   -.694E-03 0.153E-03 0.132E-03
   -.233E+01 0.161E+01 0.210E+01   0.237E+01 -.189E+01 -.180E+01   0.377E+00 0.303E+00 -.204E+00   -.133E-03 0.113E-02 -.782E-03
   0.790E+00 -.255E+00 -.306E+01   -.907E+00 0.312E+00 0.292E+01   -.242E+00 0.533E+00 0.165E+01   0.105E-02 0.792E-03 0.321E-03
   0.303E+01 0.125E+01 -.483E+01   -.324E+01 -.124E+01 0.458E+01   -.454E-01 0.386E+00 0.984E+00   0.150E-03 0.112E-02 0.264E-03
   0.136E+01 0.400E+00 -.143E+01   -.123E+01 -.619E+00 0.123E+01   0.192E+00 -.163E-01 -.567E+00   0.233E-03 0.133E-02 -.447E-03
   0.419E+01 0.553E+01 -.297E+01   -.400E+01 -.494E+01 0.289E+01   -.363E+00 -.865E+00 0.509E+00   0.409E-03 0.115E-02 -.176E-03
   0.748E+01 0.357E+01 -.178E+01   -.689E+01 -.334E+01 0.149E+01   -.113E+01 -.391E+00 0.164E+00   0.119E-03 0.725E-03 -.177E-03
   0.778E+01 0.256E+01 -.135E-01   -.751E+01 -.270E+01 0.313E+00   -.827E+00 -.548E+00 -.744E+00   0.274E-03 0.104E-02 0.209E-03
   -.323E+00 -.239E+01 0.112E+01   0.329E+00 0.223E+01 -.793E+00   -.601E+00 0.488E+00 -.182E+00   -.785E-03 0.776E-03 0.654E-04
   -.222E+01 0.447E+01 -.531E+01   0.181E+01 -.439E+01 0.500E+01   0.580E+00 -.517E+00 0.134E+01   -.915E-03 0.157E-02 0.413E-03
   0.139E+01 -.243E+01 0.195E+01   -.159E+01 0.204E+01 -.150E+01   0.791E-01 0.910E+00 -.500E+00   0.148E-02 0.420E-05 -.632E-03
   0.153E+00 -.313E+01 -.329E+00   -.320E+00 0.282E+01 0.856E-02   0.236E+00 0.320E+00 0.722E+00   0.221E-03 -.616E-03 0.280E-03
   0.396E+01 -.530E+01 0.298E+01   -.355E+01 0.509E+01 -.254E+01   -.507E+00 0.784E+00 -.798E+00   0.136E-02 -.868E-03 -.193E-03
   -.181E+01 -.425E+01 -.155E+01   0.150E+01 0.377E+01 0.101E+01   0.808E+00 0.855E+00 0.230E+00   0.518E-03 -.605E-03 0.250E-03
   0.158E+01 -.365E+01 0.910E+00   -.149E+01 0.325E+01 -.679E+00   -.473E+00 0.937E+00 -.370E+00   0.749E-03 -.307E-03 0.264E-03
   0.484E+01 -.137E+01 0.293E+01   -.444E+01 0.169E+01 -.284E+01   -.859E+00 -.513E+00 -.465E+00   0.118E-02 -.157E-02 0.658E-03
   -.171E+01 -.363E+01 -.282E+01   0.157E+01 0.352E+01 0.219E+01   0.516E+00 0.181E+00 0.779E+00   -.515E-03 -.472E-03 0.828E-03
   0.372E+01 -.298E+01 0.157E+01   -.291E+01 0.296E+01 -.126E+01   -.178E+01 -.128E+00 -.286E+00   -.121E-02 -.174E-02 -.456E-03
   0.141E+01 0.138E+01 -.134E+01   -.130E+01 -.120E+01 0.110E+01   -.589E-01 -.516E+00 -.157E+00   0.143E-02 -.831E-03 -.877E-03
   -.697E+00 -.995E+00 -.128E+01   0.447E+00 0.120E+01 0.128E+01   0.500E+00 0.202E+00 0.614E-01   0.132E-02 -.742E-03 -.322E-03
   0.937E+00 0.881E+00 0.944E-01   -.104E+01 -.473E+00 0.139E+00   -.221E+00 -.225E+00 0.156E-01   -.210E-03 -.104E-02 -.277E-03
   0.424E+01 0.130E+00 -.622E+00   -.398E+01 0.347E+00 0.380E+00   -.248E+00 -.886E+00 0.236E+00   0.806E-03 -.124E-02 0.258E-03
   0.719E+01 0.295E+00 -.170E+01   -.661E+01 0.117E+00 0.162E+01   -.148E+01 -.418E+00 0.463E+00   -.443E-03 -.151E-02 0.258E-03
   0.390E+01 -.166E+01 0.338E+01   -.395E+01 0.158E+01 -.282E+01   -.482E-01 -.266E+00 -.117E+01   0.698E-03 -.120E-02 -.792E-03
   -.212E+00 0.108E+01 -.237E+01   0.306E+00 -.989E+00 0.187E+01   -.317E+00 -.596E+00 0.593E+00   -.637E-03 -.483E-03 0.340E-03
   0.370E+00 -.496E+01 0.311E+01   -.457E+00 0.452E+01 -.277E+01   -.183E+00 0.129E+01 -.845E+00   -.106E-02 -.350E-03 -.435E-03
   0.497E+00 -.192E+01 -.353E+01   -.991E+00 0.142E+01 0.301E+01   0.480E+00 0.802E+00 0.942E+00   0.825E-03 -.405E-03 0.217E-03
   0.185E+01 -.437E+01 -.419E+01   -.159E+01 0.366E+01 0.405E+01   -.241E+00 0.117E+01 0.350E+00   -.173E-02 0.796E-03 0.222E-03
   0.127E+01 -.264E+01 0.101E+01   -.144E+01 0.167E+01 -.822E+00   0.731E-01 0.121E+01 -.177E+00   0.697E-03 0.218E-02 0.120E-03
   0.443E+01 -.155E+00 -.159E+01   -.418E+01 -.503E-01 0.151E+01   -.113E+01 0.646E+00 0.555E+00   -.965E-03 0.118E-02 0.138E-02
   -.586E+00 0.844E+01 -.356E-01   0.793E+00 -.794E+01 -.411E-01   -.266E+00 -.144E+01 -.628E+00   -.127E-02 0.546E-03 0.117E-03
   0.708E+01 0.591E+01 -.401E+01   -.647E+01 -.539E+01 0.350E+01   -.120E+01 -.915E+00 0.676E+00   -.996E-03 0.120E-02 0.165E-02
   0.317E+00 0.109E+01 0.383E+01   -.250E+00 -.588E+00 -.355E+01   0.400E+00 -.323E+00 -.114E+01   -.135E-03 0.865E-03 0.845E-04
   0.313E+01 0.326E+01 -.351E+01   -.283E+01 -.335E+01 0.340E+01   -.322E+00 -.539E-01 0.979E-01   -.488E-04 0.785E-03 0.369E-03
   -.202E+01 0.567E+00 -.429E+01   0.199E+01 -.731E+00 0.383E+01   0.221E-01 0.519E+00 0.138E+01   -.377E-03 0.760E-03 -.511E-04
   -.760E+01 -.470E+00 0.521E+01   0.695E+01 0.603E+00 -.479E+01   0.163E+01 0.591E+00 -.655E+00   -.758E-04 0.785E-03 -.672E-03
   -.497E+00 0.332E+01 -.883E+00   0.437E+00 -.319E+01 0.108E+01   -.209E+00 -.991E-01 -.133E+00   -.120E-03 0.123E-02 -.557E-05
   -.252E+01 0.401E+01 0.453E+01   0.226E+01 -.377E+01 -.415E+01   0.654E+00 -.526E+00 -.576E+00   -.254E-03 0.146E-03 0.136E-03
   -.361E+01 0.264E+01 -.583E+00   0.366E+01 -.265E+01 0.479E+00   0.471E+00 -.244E+00 0.119E+00   -.890E-03 0.102E-02 0.314E-03
   -.314E+01 0.365E+01 0.499E+01   0.304E+01 -.357E+01 -.465E+01   -.191E+00 -.637E+00 -.658E+00   -.125E-02 0.140E-02 -.639E-03
   -.230E+01 0.183E+00 -.340E+00   0.197E+01 -.955E-01 0.333E+00   0.751E+00 -.724E+00 -.190E+00   0.552E-03 -.534E-03 0.442E-03
   -.458E+00 0.247E+01 0.556E+01   0.193E+00 -.263E+01 -.514E+01   0.795E+00 0.587E+00 -.120E+01   0.889E-03 0.235E-02 -.930E-03
   -.228E+01 0.347E+00 -.133E+01   0.201E+01 -.209E+00 0.115E+01   0.165E+00 0.318E+00 0.502E+00   -.464E-03 0.668E-03 -.221E-03
   -.443E+01 0.224E+01 -.733E+00   0.416E+01 -.195E+01 0.449E+00   0.109E+01 -.107E+01 0.818E+00   -.438E-03 -.110E-02 0.710E-03
   -.337E+01 -.430E+01 0.242E+01   0.317E+01 0.380E+01 -.221E+01   -.637E-01 0.281E+00 -.542E-01   -.671E-03 -.107E-02 -.601E-04
   -.497E+00 -.525E+01 -.664E+00   0.599E+00 0.480E+01 0.525E+00   -.297E+00 0.777E+00 0.429E+00   -.716E-04 -.301E-03 0.880E-04
   -.212E+01 -.100E+02 0.212E+01   0.232E+01 0.944E+01 -.208E+01   -.233E+00 0.209E+01 -.258E-01   -.510E-03 0.149E-03 0.351E-03
   -.381E+01 -.105E+01 0.533E+01   0.368E+01 0.149E+01 -.494E+01   0.480E+00 -.500E+00 -.896E+00   0.128E-03 -.145E-02 0.174E-03
   -.187E+01 0.705E+01 -.265E+00   0.189E+01 -.609E+01 -.331E-01   0.181E+00 -.173E+01 0.389E-01   0.734E-03 -.160E-02 0.723E-03
   0.979E+00 -.279E+01 -.320E+01   -.633E+00 0.280E+01 0.315E+01   -.390E+00 -.215E+00 0.205E+00   -.691E-03 -.846E-03 -.279E-03
   0.121E+01 -.592E+01 0.182E+01   -.751E+00 0.541E+01 -.162E+01   -.865E+00 0.346E+00 -.332E+00   -.710E-03 -.366E-03 -.149E-03
   -.426E+01 0.349E+01 -.149E+01   0.415E+01 -.280E+01 0.137E+01   0.855E+00 -.140E+01 -.156E+00   -.114E-02 -.150E-02 -.426E-03
   -.356E+01 -.309E+01 -.175E+01   0.333E+01 0.338E+01 0.179E+01   0.834E+00 0.132E+00 0.738E-01   0.501E-03 -.492E-03 -.967E-03
   0.223E+01 -.448E+01 0.112E+01   -.168E+01 0.419E+01 -.959E+00   -.112E+01 0.553E+00 -.279E+00   -.138E-03 -.186E-03 0.334E-03
   -.368E+00 0.333E+01 0.218E+01   0.755E+00 -.257E+01 -.166E+01   -.561E+00 -.187E+01 -.118E+01   -.139E-02 -.166E-02 -.226E-03
   -.304E+01 -.396E+01 -.696E+01   0.304E+01 0.383E+01 0.610E+01   -.830E-01 0.282E+00 0.176E+01   -.365E-03 -.114E-02 0.104E-02
   0.182E+01 -.178E+01 -.339E+01   -.167E+01 0.136E+01 0.304E+01   -.329E+00 0.424E+00 0.405E+00   0.329E-03 -.851E-03 -.457E-03
   -.225E+01 -.613E+01 0.162E+01   0.206E+01 0.576E+01 -.155E+01   0.737E+00 0.136E+01 -.454E+00   0.421E-03 -.108E-02 -.112E-02
   -.614E+01 -.630E-01 -.407E+01   0.535E+01 0.256E+00 0.349E+01   0.174E+01 0.307E+00 0.870E+00   0.168E-03 -.758E-03 0.540E-04
 -----------------------------------------------------------------------------------------------
   -.160E+00 -.210E-01 0.584E-01   0.381E-12 0.941E-13 -.126E-12   0.155E+00 0.228E-01 -.896E-01   0.199E-02 0.160E-02 0.106E-02
 
 
 POSITION                                       TOTAL-FORCE (eV/Angst)
 -----------------------------------------------------------------------------------
     10.84798      0.06597     10.88155         0.863807     -0.488465     -0.033550
      2.81743      2.78777      0.01707        -0.161803     -0.628722      0.106987
      2.70724      0.07541      2.76906         0.257258     -0.312355     -0.048936
      0.06518      2.79393      2.74505        -0.071633     -1.021837     -0.489205
      1.40670      1.38331      1.34297        -0.278399      0.420431     -0.178940
      4.14445      4.10332      1.41041         0.257878      0.311052     -0.106457
      3.98469      1.45481      4.18099         0.417919      0.022128      0.096677
      1.47603      4.05013      3.99319        -0.358228      0.591220      1.511088
      0.07916      0.04257      5.48950        -0.251828      0.397844      0.731093
      2.68413      2.84273      5.61086         0.319866     -0.233379     -0.773921
      2.72272      0.07573      8.13497        -0.177912     -0.267093      0.428599
     10.83284      2.77386      8.33027        -0.539909     -0.155884     -0.122014
      1.34319      1.51292      6.94441        -0.565378     -0.683467     -0.443595
      4.14673      4.18845      6.82687        -0.595462      0.326286      0.149556
      4.08462      1.45200      9.42488         0.171258     -0.435062      1.034301
      1.40126      4.09212      9.59290        -0.112900      0.518805     -0.055109
      0.03879      5.41607      0.08942         0.069117      0.010293      0.401909
      2.73400      8.12202      0.08151        -0.096749      0.564674     -0.354807
      2.81655      5.45271      2.79425         0.501260      0.375646     -0.306989
      0.13612      8.16727      2.83736        -0.387535      0.531416     -0.138157
      1.43820      6.79018      1.47864        -0.466419     -0.195575     -0.380133
      4.05395      9.52511      1.42470         0.377291      0.072803      0.149470
      4.25056      6.84301      4.08519        -0.968614     -0.144102      0.023697
      1.45545      9.58342      4.20809         0.053744     -0.335805     -0.389156
      0.07870      5.41639      5.41516         0.250537      0.410922      0.062336
      2.88609      8.18084      5.45225        -0.328757      0.181306      0.249002
      2.72841      5.50607      8.20298         0.011248     -0.410206     -0.004192
      0.07743      8.15250      8.15511        -0.892898     -0.007937      0.381897
      1.44390      6.85680      6.80006        -0.091920     -0.345079     -0.614742
      4.12427      9.62443      6.84374        -0.223012     -0.501170      0.096821
      4.08323      6.79916      9.58602        -0.271561      0.857277     -0.502436
      1.38782      9.52677      9.51974        -0.012848      0.302390      0.429315
      5.40052      0.04945      0.04859         0.018862      0.464638      0.203993
      8.12816      2.75511      0.09543        -0.094915      0.246980      0.015093
      8.32538      0.04911      2.71606        -0.884808      0.442559      0.481221
      5.44798      2.83795      2.89834        -0.059271     -0.933492     -0.703736
      6.81607      1.42803      1.46904        -0.583423     -0.393632      0.164410
      9.50436      4.07694      1.47402         0.466747      0.182337     -0.849879
      9.63474      1.42233      4.12397        -0.025712     -0.139547     -0.005748
      6.88479      4.16744      4.09196        -0.007890      0.355632      0.929596
      5.40077      0.02137      5.42926         0.985334      0.724545     -0.239880
      8.27541      2.80488      5.46206        -0.269115      0.030231      0.060362
      8.04991      0.04829      8.20543         0.392270     -0.281907     -0.198187
      5.43872      2.80394      8.12792         0.521096     -0.251214      0.014828
      6.82685      1.47814      6.77709        -0.293162     -0.551976     -0.315969
      9.56561      4.19664      6.87381         0.424212     -0.636787     -0.195888
      9.37368      1.34787      9.65199         0.530918      0.423673     -0.773673
      6.81406      4.07696      9.51503        -0.098103      0.457320      0.320198
      5.43007      5.49747     10.85979         0.819811     -0.780050      0.535252
      8.26541      8.24648      0.02379        -0.266227     -0.223275      0.162413
      8.21905      5.50413      2.72184        -0.195416      0.329297      0.291144
      5.54990      8.09992      2.69317        -0.035087      1.519612      0.007364
      6.86565      6.81608      1.32684         0.347701     -0.061700     -0.503360
      9.64980      9.57350      1.44243         0.203823     -0.776238     -0.257712
      9.56954      6.85019      4.12159        -0.044435     -0.208746      0.159442
      6.87458      9.59600      4.06286        -0.402038     -0.167561     -0.139227
      5.47800      5.54945      5.50536         0.743637     -0.710079     -0.270973
      8.14522      8.19606      5.45137         0.606924      0.421383      0.114885
      8.18598      5.48177      8.20499        -0.573622      0.264159     -0.118049
      5.41816      8.28695      8.27222        -0.174957     -1.107658     -0.659683
      6.81027      6.89582      6.83316        -0.077342      0.148703      0.903734
      9.53324      9.56804      6.85348        -0.173035     -0.004684      0.050357
      9.54073      6.74095      9.60760         0.546974      0.990383     -0.377319
      6.72273      9.55247      9.61892         0.952834      0.498737      0.284579
 -----------------------------------------------------------------------------------
    total drift:                               -0.002021      0.003431     -0.030171


--------------------------------------------------------------------------------------------------------



  FREE ENERGIE OF THE ION-ELECTRON SYSTEM (eV)
  ---------------------------------------------------
  free  energy   TOTEN  =      -344.91283775 eV

  energy  without entropy=     -344.91283775  energy(sigma->0) =     -344.91283775
 


--------------------------------------------------------------------------------------------------------


    POTLOK:  cpu time      0.1773: real time      0.1777


--------------------------------------------------------------------------------------------------------


 writing wavefunctions
     LOOP+:  cpu time    235.4630: real time    247.9172
    4ORBIT:  cpu time      0.0000: real time      0.0000

 total amount of memory used by VASP MPI-rank0    37831. kBytes
=======================================================================

   base      :      30000. kBytes
   nonlr-proj:       1202. kBytes
   fftplans  :        841. kBytes
   grid      :       1174. kBytes
   one-center:          9. kBytes
   wavefun   :       4605. kBytes
 
  
  
 General timing and accounting informations for this job:
 ========================================================
  
                  Total CPU time used (sec):      275.890
                            User time (sec):      275.692
                          System time (sec):        0.198
                         Elapsed time (sec):      296.577
  
                   Maximum memory used (kb):      208908.
                   Average memory used (kb):          N/A
  
                          Minor page faults:        19358
                          Major page faults:         7404
                 Voluntary context switches:         4765
