 vasp.6.4.2 20Jul23 (build Jun 27 2024 19:57:08) complex                        
  
 executed on                 T2A5 date 2026.01.13  22:49:10
 running   28 mpi-ranks, with    1 threads/rank, on    1 nodes
 distrk:  each k-point on   28 cores,    1 groups
 distr:  one band on NCORE=  28 cores,    1 groups


--------------------------------------------------------------------------------------------------------


 INCAR:
   ISTART = 1
   ICHARG = 1
   LWAVE = .T.
   LCHARG = .T.
   ENCUT = 250
   PREC = Normal
   ADDGRID = .F.
   EDIFF = 1E-4
   LREAL = Auto
   ALGO = Fast
   NSW = 0
   IBRION = -1
   ISMEAR = 0
   SIGMA = 0.1
   NPAR = 1
   KPAR = 1
   SYMPREC = 1E-4

 POTCAR:    PAW_PBE Si 05Jan2001                  
 POTCAR:    PAW_PBE Si 05Jan2001                  
   SHA256 =  79d9987ad8750f624c4d6acb2a16d13abf6a777132adc04dc6c8399be72b42bb Si/POTCAR             
   COPYR  = (c) Copyright 05Jan2001 Georg Kresse                                                    
   COPYR  = This file is part of the software VASP. Any use, copying, and all other rights are regul
   COPYR  = If you do not have a valid VASP license, you may not use, copy or distribute this file. 
   VRHFIN =Si: s2p2                                                                                 
   LEXCH  = PE                                                                                      
   EATOM  =   103.0669 eV,    7.5752 Ry                                                             
                                                                                                    
   TITEL  = PAW_PBE Si 05Jan2001                                                                    
   LULTRA =        F    use ultrasoft PP ?                                                          
   IUNSCR =        1    unscreen: 0-lin 1-nonlin 2-no                                               
   RPACOR =    1.500    partial core radius                                                         
   POMASS =   28.085; ZVAL   =    4.000    mass and valenz                                          
   RCORE  =    1.900    outmost cutoff radius                                                       
   RWIGS  =    2.480; RWIGS  =    1.312    wigner-seitz radius (au A)                               
   ENMAX  =  245.345; ENMIN  =  184.009 eV                                                          
   ICORE  =        2    local potential                                                             
   LCOR   =        T    correct aug charges                                                         
   LPAW   =        T    paw PP                                                                      
   EAUG   =  322.069                                                                                
   DEXC   =    0.000                                                                                
   RMAX   =    1.950    core radius for proj-oper                                                   
   RAUG   =    1.300    factor for augmentation sphere                                              
   RDEP   =    1.993    radius for radial grids                                                     
   RDEPT  =    1.837    core radius for aug-charge                                                  
                                                                                                    
   Atomic configuration                                                                             
    6 entries                                                                                       
     n  l   j            E        occ.                                                              
     1  0  0.50     -1785.8828   2.0000                                                             
     2  0  0.50      -139.4969   2.0000                                                             
     2  1  1.50       -95.5546   6.0000                                                             
     3  0  0.50       -10.8127   2.0000                                                             
     3  1  0.50        -4.0811   2.0000                                                             
     3  2  1.50        -4.0817   0.0000                                                             
   Description                                                                                      
     l       E           TYP  RCUT    TYP  RCUT                                                     
     0    -10.8127223     23  1.900                                                                 
     0     -7.6451159     23  1.900                                                                 
     1     -4.0811372     23  1.900                                                                 
     1      2.4879257     23  1.900                                                                 
     2     -4.0817478      7  1.900                                                                 
  local pseudopotential read in
  partial core-charges read in
  partial kinetic energy density read in
  atomic valenz-charges read in
  non local Contribution for L=           0  read in
    real space projection operators read in
  non local Contribution for L=           0  read in
    real space projection operators read in
  non local Contribution for L=           1  read in
    real space projection operators read in
  non local Contribution for L=           1  read in
    real space projection operators read in
    PAW grid and wavefunctions read in
 
   number of l-projection  operators is LMAX  =           4
   number of lm-projection operators is LMMAX =           8
 
 Optimization of the real space projectors (new method)

 maximal supplied QI-value         = 19.84
 optimisation between [QCUT,QGAM] = [  7.94, 16.07] = [ 17.64, 72.34] Ry 
 Optimized for a Real-space Cutoff    1.55 Angstroem

   l    n(q)    QCUT    max X(q) W(low)/X(q) W(high)/X(q)  e(spline) 
   0      7     7.937   159.560    0.97E-04    0.31E-03    0.13E-06
   0      7     7.937   115.863    0.95E-04    0.31E-03    0.13E-06
   1      7     7.937    88.339    0.40E-03    0.66E-03    0.12E-06
   1      7     7.937    48.592    0.39E-03    0.64E-03    0.12E-06
  PAW_PBE Si 05Jan2001                  :
 energy of atom  1       EATOM= -103.0669
 kinetic energy error for atom=    0.0052 (will be added to EATOM!!)
 
 
 POSCAR: Si
  positions in cartesian coordinates
  No initial velocities read in
 exchange correlation table for  LEXCH =        8
   RHO(1)=    0.500       N(1)  =     2000
   RHO(2)=  100.500       N(2)  =     4000
 


--------------------------------------------------------------------------------------------------------


 ion  position               nearest neighbor table
   1  0.998  0.006  0.000-  47 2.31  54 2.32   5 2.38  32 2.44
   2  0.260  0.256  0.002-   6 2.32  16 2.33  15 2.36   5 2.38
   3  0.250  0.005  0.255-  24 2.33   5 2.35   7 2.35  22 2.38
   4  0.005  0.256  0.252-   8 2.28  38 2.32  39 2.34   5 2.40
   5  0.130  0.128  0.124-   3 2.35   1 2.38   2 2.38   4 2.40
   6  0.380  0.378  0.130-  19 2.32   2 2.32  36 2.35  49 2.37
   7  0.367  0.133  0.384-   3 2.35  41 2.37  10 2.37  36 2.38
   8  0.136  0.372  0.367-   4 2.28  19 2.28  10 2.34  25 2.41
   9  0.008  0.005  0.505-  24 2.33  39 2.34  62 2.40  13 2.40
  10  0.248  0.261  0.514-  13 2.33  14 2.33   8 2.34   7 2.37
  11  0.252  0.007  0.748-  13 2.32  15 2.33  30 2.33  32 2.41
  12  0.997  0.254  0.765-  13 2.34  16 2.35  46 2.39  47 2.41
  13  0.124  0.138  0.637-  11 2.32  10 2.33  12 2.34   9 2.40
  14  0.382  0.385  0.628-  44 2.31  57 2.31  10 2.33  27 2.37
  15  0.377  0.134  0.866-  44 2.31  11 2.33   2 2.36  33 2.42
  16  0.131  0.376  0.881-   2 2.33  12 2.35  17 2.37  27 2.37
  17  0.004  0.498  0.009-  63 2.35  16 2.37  38 2.39  21 2.40
  18  0.252  0.746  0.007-  21 2.32  31 2.33  22 2.34  32 2.41
  19  0.260  0.501  0.257-   8 2.28   6 2.32  21 2.32  23 2.35
  20  0.013  0.752  0.261-  21 2.35  24 2.36  55 2.37  54 2.40
  21  0.134  0.624  0.136-  19 2.32  18 2.32  20 2.35  17 2.40
  22  0.373  0.874  0.131-  18 2.34   3 2.38  33 2.40  52 2.42
  23  0.390  0.627  0.375-  57 2.29  52 2.31  19 2.35  26 2.36
  24  0.135  0.880  0.386-   3 2.33   9 2.33  26 2.35  20 2.36
  25  0.009  0.497  0.498-  46 2.36  55 2.39  29 2.40   8 2.41
  26  0.265  0.752  0.502-  30 2.35  24 2.35  23 2.36  29 2.37
  27  0.253  0.506  0.754-  31 2.32  29 2.34  14 2.37  16 2.37
  28  0.007  0.748  0.751-  29 2.33  32 2.34  62 2.39  63 2.43
  29  0.133  0.629  0.625-  28 2.33  27 2.34  26 2.37  25 2.40
  30  0.380  0.883  0.629-  41 2.31  11 2.33  60 2.34  26 2.35
  31  0.376  0.626  0.880-  49 2.30  27 2.32  18 2.33  60 2.38
  32  0.129  0.874  0.876-  28 2.34  18 2.41  11 2.41   1 2.44
  33  0.496  0.006  0.005-  64 2.35  22 2.40  15 2.42  37 2.44
  34  0.749  0.253  0.009-  47 2.30  37 2.32  38 2.35  48 2.37
  35  0.765  0.006  0.251-  54 2.32  39 2.35  37 2.38  56 2.38
  36  0.500  0.260  0.265-  40 2.31   6 2.35   7 2.38  37 2.43
  37  0.628  0.131  0.136-  34 2.32  35 2.38  36 2.43  33 2.44
  38  0.873  0.376  0.135-  51 2.29   4 2.32  34 2.35  17 2.39
  39  0.886  0.130  0.379-   9 2.34   4 2.34  35 2.35  42 2.37
  40  0.633  0.383  0.376-  36 2.31  51 2.32  42 2.38  57 2.40
  41  0.498  0.003  0.499-  30 2.31   7 2.37  56 2.40  45 2.43
  42  0.760  0.258  0.502-  46 2.36  45 2.37  39 2.37  40 2.38
  43  0.741  0.003  0.756-  47 2.35  64 2.36  45 2.39  62 2.46
  44  0.502  0.257  0.747-  15 2.31  14 2.31  48 2.32  45 2.33
  45  0.627  0.136  0.623-  44 2.33  42 2.37  43 2.39  41 2.43
  46  0.881  0.385  0.632-  59 2.31  25 2.36  42 2.36  12 2.39
  47  0.864  0.125  0.886-  34 2.30   1 2.31  43 2.35  12 2.41
  48  0.627  0.374  0.874-  44 2.32  59 2.36  34 2.37  49 2.40
  49  0.500  0.503  1.000-  31 2.30  53 2.37   6 2.37  48 2.40
  50  0.759  0.758  0.002-  64 2.37  53 2.38  54 2.38  63 2.39
  51  0.755  0.506  0.251-  38 2.29  40 2.32  53 2.33  55 2.36
  52  0.512  0.746  0.248-  23 2.31  53 2.31  56 2.40  22 2.42
  53  0.633  0.625  0.122-  52 2.31  51 2.33  49 2.37  50 2.38
  54  0.888  0.879  0.132-   1 2.32  35 2.32  50 2.38  20 2.40
  55  0.880  0.629  0.380-  51 2.36  58 2.36  20 2.37  25 2.39
  56  0.632  0.882  0.373-  58 2.34  35 2.38  52 2.40  41 2.40
  57  0.504  0.508  0.506-  23 2.29  14 2.31  61 2.33  40 2.40
  58  0.749  0.753  0.500-  61 2.34  56 2.34  55 2.36  62 2.40
  59  0.754  0.503  0.753-  46 2.31  63 2.32  48 2.36  61 2.38
  60  0.499  0.760  0.759-  64 2.28  30 2.34  31 2.38  61 2.43
  61  0.627  0.632  0.630-  57 2.33  58 2.34  59 2.38  60 2.43
  62  0.878  0.877  0.628-  28 2.39   9 2.40  58 2.40  43 2.46
  63  0.879  0.619  0.881-  59 2.32  17 2.35  50 2.39  28 2.43
  64  0.620  0.877  0.884-  60 2.28  33 2.35  43 2.36  50 2.37
 
  LATTYP: Found a base centered monoclinic cell.
 ALAT       =    26.6716688898
 B/A-ratio  =     0.5765842447
 C/A-ratio  =     0.4079802272
 COS(beta)  =    -0.8165775180
  
  Lattice vectors:
  
 A1 = (  10.8889684900, -10.8815097200,   0.0000000000)
 A2 = (   0.0214056500, -10.8888480300, -10.8808630600)
 A3 = (  -0.0091109000,  10.8815097200,   0.0000000000)


Analysis of symmetry for initial positions (statically):
=====================================================================
 Subroutine PRICEL returns:
 Original cell was already a primitive cell.
 

 Routine SETGRP: Setting up the symmetry group for a 
 base centered monoclinic supercell.


 Subroutine GETGRP returns: Found  1 space group operations
 (whereof  1 operations were pure point group operations)
 out of a pool of  4 trial point group operations.


The static configuration has the point symmetry C_1 .


Analysis of symmetry for dynamics (positions and initial velocities):
=====================================================================
 Subroutine PRICEL returns:
 Original cell was already a primitive cell.
 

 Routine SETGRP: Setting up the symmetry group for a 
 base centered monoclinic supercell.


 Subroutine GETGRP returns: Found  1 space group operations
 (whereof  1 operations were pure point group operations)
 out of a pool of  4 trial point group operations.


The dynamic configuration has the point symmetry C_1 .


 Subroutine INISYM returns: Found  1 space group operations
 (whereof  1 operations are pure point group operations),
 and found     1 'primitive' translations


----------------------------------------------------------------------------------------

                                     Primitive cell                                     

  volume of cell :    1288.1775

  direct lattice vectors                    reciprocal lattice vectors
    10.879857590  0.000000000  0.000000000     0.091912968  0.000076957  0.000103804
    -0.009110900 10.881509720  0.000000000     0.000000000  0.091899013 -0.000061979
    -0.012294750  0.007338310 10.880863060     0.000000000  0.000000000  0.091904474

  length of vectors
    10.879857590 10.881513534 10.880872481     0.091913059  0.091899034  0.091904474

  position of ions in fractional coordinates (direct lattice)
     0.997759385  0.005820429  0.000272117
     0.260131429  0.255569528  0.001925157
     0.250101516  0.005279904  0.255103764
     0.005215534  0.256486712  0.251858860
     0.130372055  0.128073072  0.123960943
     0.379554631  0.377772679  0.130197935
     0.367221829  0.133180439  0.383954703
     0.136451470  0.372214071  0.367331709
     0.008057344  0.005210956  0.504620051
     0.248228707  0.261125859  0.514005165
     0.252036266  0.007305540  0.747738579
     0.996512592  0.254212674  0.765072909
     0.124363142  0.137531636  0.637345836
     0.381596283  0.384856223  0.627666694
     0.377123658  0.133946756  0.866488002
     0.131345514  0.376205633  0.881116780
     0.004314753  0.497879392  0.008663333
     0.252438351  0.746057544  0.007385263
     0.259933432  0.500900165  0.256716395
     0.013341277  0.752204236  0.260665727
     0.133520919  0.623649773  0.136001989
     0.373306395  0.873592800  0.130908038
     0.389913330  0.627081993  0.375301347
     0.135491472  0.880421416  0.385764007
     0.009434190  0.497251071  0.498083140
     0.265249363  0.751973701  0.501562131
     0.252742620  0.505532949  0.754151021
     0.007370515  0.748260495  0.750658499
     0.133285655  0.629475781  0.624710613
     0.379718099  0.883256178  0.628958800
     0.375851476  0.626153871  0.880206487
     0.128951084  0.874330345  0.875798542
     0.496228122  0.005896021  0.004625254
     0.748852862  0.253017758  0.008630697
     0.764677703  0.005524097  0.250799591
     0.500262566  0.260221130  0.265089181
     0.627938391  0.131416951  0.135534887
     0.872750780  0.376296693  0.135338764
     0.886423953  0.130173764  0.378962025
     0.632665655  0.383453366  0.376195052
     0.497919294  0.002540797  0.499140302
     0.760484996  0.258389480  0.502170894
     0.741319614  0.003070310  0.756196490
     0.501585172  0.257202463  0.747114181
     0.626878733  0.135676158  0.623096389
     0.881052158  0.384531244  0.631717211
     0.863722193  0.124800463  0.885966138
     0.627401531  0.374145700  0.874233934
     0.500131413  0.503336504  0.999785916
     0.759247813  0.757989184  0.001710434
     0.755043069  0.505969990  0.251406657
     0.511843095  0.745518671  0.248219656
     0.632766415  0.625388180  0.121535310
     0.887706704  0.879000093  0.131592174
     0.879521799  0.628571957  0.379617804
     0.632009778  0.881557284  0.373263876
     0.504490811  0.508118006  0.505557360
     0.748816190  0.752807369  0.500490547
     0.754060631  0.502903821  0.753490388
     0.499277520  0.760478591  0.759054025
     0.627453326  0.631801415  0.629905904
     0.878468283  0.876992021  0.628031245
     0.879497988  0.619298317  0.880883765
     0.620082376  0.877035510  0.884477577

  ion indices of the primitive-cell ions
   primitive index   ion index
                 1           1
                 2           2
                 3           3
                 4           4
                 5           5
                 6           6
                 7           7
                 8           8
                 9           9
                10          10
                11          11
                12          12
                13          13
                14          14
                15          15
                16          16
                17          17
                18          18
                19          19
                20          20
                21          21
                22          22
                23          23
                24          24
                25          25
                26          26
                27          27
                28          28
                29          29
                30          30
                31          31
                32          32
                33          33
                34          34
                35          35
                36          36
                37          37
                38          38
                39          39
                40          40
                41          41
                42          42
                43          43
                44          44
                45          45
                46          46
                47          47
                48          48
                49          49
                50          50
                51          51
                52          52
                53          53
                54          54
                55          55
                56          56
                57          57
                58          58
                59          59
                60          60
                61          61
                62          62
                63          63
                64          64

----------------------------------------------------------------------------------------

 
 
 KPOINTS: K-Points                                

Automatic generation of k-mesh.
 Grid dimensions read from file:
 generate k-points for:    2    2    2

 Generating k-lattice:

  Cartesian coordinates                     Fractional coordinates (reciprocal lattice)
     0.045956484  0.000038479  0.000051902     0.500000000 -0.000000000 -0.000000000
     0.000000000  0.045949506 -0.000030989     0.000000000  0.500000000  0.000000000
     0.000000000  0.000000000  0.045952237     0.000000000  0.000000000  0.500000000

  Length of vectors
     0.045956529  0.045949517  0.045952237

  Shift w.r.t. Gamma in fractional coordinates (k-lattice)
     0.500000000  0.500000000  0.500000000

 
 Subroutine IBZKPT returns following result:
 ===========================================
 
 Found      4 irreducible k-points:
 
 Following reciprocal coordinates:
            Coordinates               Weight
  0.250000  0.250000  0.250000      2.000000
  0.250000 -0.250000  0.250000      2.000000
 -0.250000  0.250000  0.250000      2.000000
 -0.250000 -0.250000  0.250000      2.000000
 
 Following cartesian coordinates:
            Coordinates               Weight
  0.022978  0.022994  0.022987      2.000000
  0.022978 -0.022956  0.023018      2.000000
 -0.022978  0.022956  0.022935      2.000000
 -0.022978 -0.022994  0.022966      2.000000
 


--------------------------------------------------------------------------------------------------------




 Dimension of arrays:
   k-points           NKPTS =      4   k-points in BZ     NKDIM =      4   number of bands    NBANDS=    161
   number of dos      NEDOS =    301   number of ions     NIONS =     64
   non local maximal  LDIM  =      4   non local SUM 2l+1 LMDIM =      8
   total plane-waves  NPLWV =  74088
   max r-space proj   IRMAX =    949   max aug-charges    IRDMAX=   2122
   dimension x,y,z NGX =    42 NGY =   42 NGZ =   42
   dimension x,y,z NGXF=    84 NGYF=   84 NGZF=   84
   support grid    NGXF=    84 NGYF=   84 NGZF=   84
   ions per type =              64
   NGX,Y,Z   is equivalent  to a cutoff of   6.42,  6.42,  6.42 a.u.
   NGXF,Y,Z  is equivalent  to a cutoff of  12.84, 12.83, 12.83 a.u.

 SYSTEM =  unknown system                          
 POSCAR =  Si                                      

 Startparameter for this run:
   NWRITE =      2    write-flag & timer
   PREC   = normal    normal or accurate (medium, high low for compatibility)
   ISTART =      1    job   : 0-new  1-cont  2-samecut
   ICHARG =      1    charge: 1-file 2-atom 10-const
   ISPIN  =      1    spin polarized calculation?
   LNONCOLLINEAR =      F non collinear calculations
   LSORBIT =      F    spin-orbit coupling
   INIWAV =      1    electr: 0-lowe 1-rand  2-diag
   LASPH  =      F    aspherical Exc in radial PAW
 Electronic Relaxation 1
   ENCUT  =  250.0 eV  18.37 Ry    4.29 a.u.  14.03 14.03 14.03*2*pi/ulx,y,z
   ENINI  =  250.0     initial cutoff
   ENAUG  =  322.1 eV  augmentation charge cutoff
   NELM   =     60;   NELMIN=  2; NELMDL=  0     # of ELM steps 
   EDIFF  = 0.1E-03   stopping-criterion for ELM
   LREAL  =      T    real-space projection
   NLSPLINE    = F    spline interpolate recip. space projectors
   LCOMPAT=      F    compatible to vasp.4.4
   GGA_COMPAT  = T    GGA compatible to vasp.4.4-vasp.4.6
   LMAXPAW     = -100 max onsite density
   LMAXMIX     =    2 max onsite mixed and CHGCAR
   VOSKOWN=      0    Vosko Wilk Nusair interpolation
   ROPT   =   -0.00050
 Ionic relaxation
   EDIFFG = 0.1E-02   stopping-criterion for IOM
   NSW    =      0    number of steps for IOM
   NBLOCK =      1;   KBLOCK =      1    inner block; outer block 
   IBRION =     -1    ionic relax: 0-MD 1-quasi-New 2-CG
   NFREE  =      0    steps in history (QN), initial steepest desc. (CG)
   ISIF   =      2    stress and relaxation
   IWAVPR =     10    prediction:  0-non 1-charg 2-wave 3-comb
   ISYM   =      2    0-nonsym 1-usesym 2-fastsym
   LCORR  =      T    Harris-Foulkes like correction to forces

   POTIM  = 0.5000    time-step for ionic-motion
   TEIN   =    0.0    initial temperature
   TEBEG  =    0.0;   TEEND  =   0.0 temperature during run
   SMASS  =  -3.00    Nose mass-parameter (am)
   estimated Nose-frequenzy (Omega)   =  0.10E-29 period in steps = 0.13E+47 mass=  -0.271E-26a.u.
   SCALEE = 1.0000    scale energy and forces
   NPACO  =    256;   APACO  = 10.0  distance and # of slots for P.C.
   PSTRESS=    0.0 pullay stress

  Mass of Ions in am
   POMASS =  28.09
  Ionic Valenz
   ZVAL   =   4.00
  Atomic Wigner-Seitz radii
   RWIGS  =  -1.00
  virtual crystal weights 
   VCA    =   1.00
   NELECT =     256.0000    total number of electrons
   NUPDOWN=      -1.0000    fix difference up-down

 DOS related values:
   EMIN   =  10.00;   EMAX   =-10.00  energy-range for DOS
   EFERMI =   0.00;   METHOD = LEGACY      
   ISMEAR =     0;   SIGMA  =   0.10  broadening in eV -4-tet -1-fermi 0-gaus

 Electronic relaxation 2 (details)
   IALGO  =     68    algorithm
   LDIAG  =      T    sub-space diagonalisation (order eigenvalues)
   LSUBROT=      F    optimize rotation matrix (better conditioning)
   TURBO    =      0    0=normal 1=particle mesh
   IRESTART =      0    0=no restart 2=restart with 2 vectors
   NREBOOT  =      0    no. of reboots
   NMIN     =      0    reboot dimension
   EREF     =   0.00    reference energy to select bands
   IMIX   =      4    mixing-type and parameters
     AMIX     =   0.40;   BMIX     =  1.00
     AMIX_MAG =   1.60;   BMIX_MAG =  1.00
     AMIN     =   0.10
     WC   =   100.;   INIMIX=   1;  MIXPRE=   1;  MAXMIX= -45

 Intra band minimization:
   WEIMIN = 0.0000     energy-eigenvalue tresh-hold
   EBREAK =  0.16E-06  absolut break condition
   DEPER  =   0.30     relativ break condition  

   TIME   =   0.40     timestep for ELM

  volume/ion in A,a.u.               =      20.13       135.83
  Fermi-wavevector in a.u.,A,eV,Ry     =   0.955351  1.805351 12.417974  0.912695
  Thomas-Fermi vector in A             =   2.084181
 
 Write flags
   LWAVE        =      T    write WAVECAR
   LDOWNSAMPLE  =      F    k-point downsampling of WAVECAR
   LCHARG       =      T    write CHGCAR
   LVTOT        =      F    write LOCPOT, total local potential
   LVHAR        =      F    write LOCPOT, Hartree potential only
   LELF         =      F    write electronic localiz. function (ELF)
   LORBIT       =      0    0 simple, 1 ext, 2 COOP (PROOUT), +10 PAW based schemes


 Dipole corrections
   LMONO  =      F    monopole corrections only (constant potential shift)
   LDIPOL =      F    correct potential (dipole corrections)
   IDIPOL =      0    1-x, 2-y, 3-z, 4-all directions 
   EPSILON=  1.0000000 bulk dielectric constant

 Exchange correlation treatment:
   GGA     =    --    GGA type
   LEXCH   =     8    internal setting for exchange type
   LIBXC   =     F    Libxc                    
   VOSKOWN =     0    Vosko Wilk Nusair interpolation
   LHFCALC =     F    Hartree Fock is set to
   LHFONE  =     F    Hartree Fock one center treatment
   AEXX    =    0.0000 exact exchange contribution

 Linear response parameters
   LEPSILON=     F    determine dielectric tensor
   LRPA    =     F    only Hartree local field effects (RPA)
   LNABLA  =     F    use nabla operator in PAW spheres
   LVEL    =     F    velocity operator in full k-point grid
   CSHIFT  =0.1000    complex shift for real part using Kramers Kronig
   OMEGAMAX=  -1.0    maximum frequency
   DEG_THRESHOLD= 0.2000000E-02 threshold for treating states as degnerate
   RTIME   =   -0.100 relaxation time in fs
  (WPLASMAI=    0.000 imaginary part of plasma frequency in eV, 0.658/RTIME)
   DFIELD  = 0.0000000 0.0000000 0.0000000 field for delta impulse in time
 
  Optional k-point grid parameters
   LKPOINTS_OPT  =     F    use optional k-point grid
   KPOINTS_OPT_MODE=     1    mode for optional k-point grid
 
 Orbital magnetization related:
   ORBITALMAG=     F  switch on orbital magnetization
   LCHIMAG   =     F  perturbation theory with respect to B field
   DQ        =  0.001000  dq finite difference perturbation B field
   LLRAUG    =     F  two centre corrections for induced B field
   LBONE     =     F  B-component reconstruction in AE one-centre
   LVGVCALC  =     T  calculate vGv susceptibility
   LVGVAPPL  =     F  apply vGv susceptibility instead of pGv for G=0

 Random number generation:
   RANDOM_GENERATOR = DEFAULT
   PCG_SEED         = not used


--------------------------------------------------------------------------------------------------------


 Static calculation
 charge density and potential will be updated during run
 non-spin polarized calculation
 RMM-DIIS sequential band-by-band and
  variant of blocked Davidson during initial phase
 perform sub-space diagonalisation
    before iterative eigenvector-optimisation
 modified Broyden-mixing scheme, WC =      100.0
 initial mixing is a Kerker type mixing with AMIX =  0.4000 and BMIX =      1.0000
 Hartree-type preconditioning will be used
 using additional bands           33
 real space projection scheme for non local part
 use partial core corrections
 calculate Harris-corrections to forces 
   (improved forces if not selfconsistent)
 use gradient corrections 
 use of overlap-Matrix (Vanderbilt PP)
 Gauss-broadening in eV      SIGMA  =   0.10


--------------------------------------------------------------------------------------------------------


  energy-cutoff  :      250.00
  volume of cell :     1288.18
      direct lattice vectors                 reciprocal lattice vectors
    10.879857590  0.000000000  0.000000000     0.091912968  0.000076957  0.000103804
    -0.009110900 10.881509720  0.000000000     0.000000000  0.091899013 -0.000061979
    -0.012294750  0.007338310 10.880863060     0.000000000  0.000000000  0.091904474

  length of vectors
    10.879857590 10.881513534 10.880872481     0.091913059  0.091899034  0.091904474


 
 old parameters found on file WAVECAR:
  energy-cutoff  :      250.00
  volume of cell :     1288.57
      direct lattice vectors                 reciprocal lattice vectors
    10.881008620  0.000000000  0.000000000     0.091903245  0.000076116  0.000102526
    -0.009013040 10.882500360  0.000000000     0.000000000  0.091890647 -0.000061582
    -0.012145880  0.007292810 10.882035130     0.000000000  0.000000000  0.091894576

  length of vectors

 
 k-points in units of 2pi/SCALE and weight: K-Points                                
   0.02297824  0.02299399  0.02298657       0.250
   0.02297824 -0.02295551  0.02301756       0.250
  -0.02297824  0.02295551  0.02293467       0.250
  -0.02297824 -0.02299399  0.02296566       0.250
 
 k-points in reciprocal lattice and weights: K-Points                                
   0.25000000  0.25000000  0.25000000       0.250
   0.25000000 -0.25000000  0.25000000       0.250
  -0.25000000  0.25000000  0.25000000       0.250
  -0.25000000 -0.25000000  0.25000000       0.250
 
 position of ions in fractional coordinates (direct lattice) 
   0.99775938  0.00582043  0.00027212
   0.26013143  0.25556953  0.00192516
   0.25010152  0.00527990  0.25510376
   0.00521553  0.25648671  0.25185886
   0.13037205  0.12807307  0.12396094
   0.37955463  0.37777268  0.13019793
   0.36722183  0.13318044  0.38395470
   0.13645147  0.37221407  0.36733171
   0.00805734  0.00521096  0.50462005
   0.24822871  0.26112586  0.51400516
   0.25203627  0.00730554  0.74773858
   0.99651259  0.25421267  0.76507291
   0.12436314  0.13753164  0.63734584
   0.38159628  0.38485622  0.62766669
   0.37712366  0.13394676  0.86648800
   0.13134551  0.37620563  0.88111678
   0.00431475  0.49787939  0.00866333
   0.25243835  0.74605754  0.00738526
   0.25993343  0.50090017  0.25671640
   0.01334128  0.75220424  0.26066573
   0.13352092  0.62364977  0.13600199
   0.37330640  0.87359280  0.13090804
   0.38991333  0.62708199  0.37530135
   0.13549147  0.88042142  0.38576401
   0.00943419  0.49725107  0.49808314
   0.26524936  0.75197370  0.50156213
   0.25274262  0.50553295  0.75415102
   0.00737052  0.74826049  0.75065850
   0.13328565  0.62947578  0.62471061
   0.37971810  0.88325618  0.62895880
   0.37585148  0.62615387  0.88020649
   0.12895108  0.87433035  0.87579854
   0.49622812  0.00589602  0.00462525
   0.74885286  0.25301776  0.00863070
   0.76467770  0.00552410  0.25079959
   0.50026257  0.26022113  0.26508918
   0.62793839  0.13141695  0.13553489
   0.87275078  0.37629669  0.13533876
   0.88642395  0.13017376  0.37896203
   0.63266566  0.38345337  0.37619505
   0.49791929  0.00254080  0.49914030
   0.76048500  0.25838948  0.50217089
   0.74131961  0.00307031  0.75619649
   0.50158517  0.25720246  0.74711418
   0.62687873  0.13567616  0.62309639
   0.88105216  0.38453124  0.63171721
   0.86372219  0.12480046  0.88596614
   0.62740153  0.37414570  0.87423393
   0.50013141  0.50333650  0.99978592
   0.75924781  0.75798918  0.00171043
   0.75504307  0.50596999  0.25140666
   0.51184310  0.74551867  0.24821966
   0.63276642  0.62538818  0.12153531
   0.88770670  0.87900009  0.13159217
   0.87952180  0.62857196  0.37961780
   0.63200978  0.88155728  0.37326388
   0.50449081  0.50811801  0.50555736
   0.74881619  0.75280737  0.50049055
   0.75406063  0.50290382  0.75349039
   0.49927752  0.76047859  0.75905402
   0.62745333  0.63180141  0.62990590
   0.87846828  0.87699202  0.62803124
   0.87949799  0.61929832  0.88088377
   0.62008238  0.87703551  0.88447758
 
 position of ions in cartesian coordinates  (Angst):
  10.85542364  0.06333705  0.00296087
   2.82784076  2.78099643  0.02094737
   2.71788434  0.05932536  2.77574912
   0.05131090  2.79281087  2.74044177
   1.41573846  1.39453804  1.34880205
   4.12445773  4.11169251  1.41666590
   3.98938718  1.45202182  4.17775854
   1.47666511  4.05294663  3.99688602
   0.08141110  0.06040613  5.49070167
   2.69199432  2.84521550  5.59281981
   2.73285886  0.08498244  8.13604108
  10.83019260  2.77183203  8.32465355
   1.34396423  1.50122888  6.93487276
   4.14048982  4.19242274  6.82955535
   4.09117806  1.46390149  9.42813729
   1.41475981  4.10015116  9.58731102
   0.04230125  5.41774302  0.09426454
   2.73960525  8.11828661  0.08035803
   2.82031881  5.45243388  2.79329594
   0.13509312  8.18703055  2.83626808
   1.44533446  6.78724909  1.47981902
   4.05195172  9.50696919  1.42439243
   4.23187399  6.82635288  4.08360256
   1.46136362  9.58314505  4.19744533
   0.09198843  5.41449745  5.41957444
   2.87285756  8.18628975  5.45742886
   2.73592575  5.50649589  8.20581399
   0.06414367  8.14771241  8.16781233
   1.43671319  6.85423115  6.79739063
   4.11549869  9.61577618  6.84361457
   4.07268379  6.81995866  9.57740625
   1.38423577  9.52046103  9.52944400
   5.39878071  0.06419155  0.05032676
   8.14500116  2.75327853  0.09390943
   8.31645066  0.06195096  2.72891601
   5.43715542  2.83354406  2.88439908
   6.82901658  1.43100943  1.47473654
   9.49031184  4.09566928  1.47260256
   9.63832113  1.41926802  4.12343390
   6.87519340  4.17531216  4.09332685
   5.41113106  0.03131055  5.43107727
   8.26544023  2.81535272  5.46405273
   8.05612661  0.03895881  8.22807045
   5.44564631  2.80423366  8.12924709
   6.81145440  1.48093391  6.77982648
   9.57445178  4.18891621  6.87362847
   9.38514468  1.36451894  9.64007622
   6.81188202  4.07768547  9.51241972
   5.42448058  5.48439780 10.87853364
   8.25358109  8.24807923  0.01861100
   8.20706024  5.50756226  2.73552141
   5.55893584  8.11419018  2.70084409
   6.87721639  6.80605942  1.32240906
   9.64849615  9.56581372  1.43183642
   9.55867776  6.84259761  4.13056934
   6.86355541  9.59541328  4.06143312
   5.47794307  5.53280096  5.50090040
   8.13400135  8.19535346  5.44576911
   8.19022640  5.47788216  8.19862573
   5.41580729  8.28072535  8.25916290
   6.81310202  6.87957568  6.85391988
   9.54189814  9.54760589  6.83352197
   9.55234025  6.74536485  9.58477562
   6.72754293  9.54996100  9.62387940
 


--------------------------------------------------------------------------------------------------------


 k-point   1 :   0.2500 0.2500 0.2500  plane waves:   11555
 k-point   2 :   0.2500-0.2500 0.2500  plane waves:   11558
 k-point   3 :  -0.2500 0.2500 0.2500  plane waves:   11572
 k-point   4 :  -0.2500-0.2500 0.2500  plane waves:   11564

 maximum and minimum number of plane-waves per node :       426      398

 maximum number of plane-waves:     11572
 maximum index in each direction: 
   IXMAX=   14   IYMAX=   14   IZMAX=   13
   IXMIN=  -14   IYMIN=  -14   IZMIN=  -14


 real space projection operators:
  total allocation   :       3496.62 KBytes
  max/ min on nodes  :        172.81         76.88


 parallel 3D FFT for wavefunctions:
    minimum data exchange during FFTs selected (reduces bandwidth)
 parallel 3D FFT for charge:
    minimum data exchange during FFTs selected (reduces bandwidth)


 total amount of memory used by VASP MPI-rank0    37865. kBytes
=======================================================================

   base      :      30000. kBytes
   nonlr-proj:       1205. kBytes
   fftplans  :        841. kBytes
   grid      :       1174. kBytes
   one-center:          9. kBytes
   wavefun   :       4636. kBytes
 
     INWAV:  cpu time     20.4059: real time     20.4576
 Broyden mixing: mesh for mixing (old mesh)
   NGX = 29   NGY = 29   NGZ = 29
  (NGX  = 84   NGY  = 84   NGZ  = 84)
  gives a total of  24389 points

 initial charge density was supplied:
 number of electron     256.0000006 magnetization 
 keeping initial charge density in first step


--------------------------------------------------------------------------------------------------------


 Maximum index for non-local projection operator          112
 Maximum index for augmentation-charges          186 (set IRDMAX)


--------------------------------------------------------------------------------------------------------


 First call to EWALD:  gamma=   0.163
 Maximum number of real-space cells 3x 3x 3
 Maximum number of reciprocal cells 3x 3x 3

    FEWALD:  cpu time      0.1046: real time      0.1049


--------------------------------------- Ionic step        1  -------------------------------------------




--------------------------------------- Iteration      1(   1)  ---------------------------------------


    POTLOK:  cpu time      0.4779: real time      1.6280
    SETDIJ:  cpu time      0.0808: real time      0.0810
     EDDAV:  cpu time     42.4731: real time     42.5833
       DOS:  cpu time      0.1294: real time      0.1297
    CHARGE:  cpu time      4.3358: real time      4.3470
    MIXING:  cpu time      0.0241: real time      0.0242
    --------------------------------------------
      LOOP:  cpu time     47.5212: real time     48.7932

 eigenvalue-minimisations  :  1376
 total energy-change (2. order) :-0.3451600E+03  (-0.1035695E+00)
 number of electron     256.0000030 magnetization 
 augmentation part      -14.6471057 magnetization 

 Broyden mixing:
  rms(total) = 0.54583E-01    rms(broyden)= 0.54578E-01
  rms(prec ) = 0.57156E-01
  weight for this iteration     100.00

 Free energy of the ion-electron system (eV)
  ---------------------------------------------------
  alpha Z        PSCENC =       107.03818661
  Ewald energy   TEWEN  =     -7295.97248031
  -Hartree energ DENC   =      -482.79293651
  -exchange      EXHF   =         0.00000000
  -V(xc)+E(xc)   XCENC  =      -575.50973686
  PAW double counting   =     31924.59475169   -30805.82032269
  entropy T*S    EENTRO =        -0.00000000
  eigenvalues    EBANDS =       187.35057272
  atomic energy  EATOM  =      6595.95197522
  Solvation  Ediel_sol  =         0.00000000
  ---------------------------------------------------
  free energy    TOTEN  =      -345.15999013 eV

  energy without entropy =     -345.15999013  energy(sigma->0) =     -345.15999013


--------------------------------------------------------------------------------------------------------




--------------------------------------- Iteration      1(   2)  ---------------------------------------


    POTLOK:  cpu time      0.4125: real time      0.4137
    SETDIJ:  cpu time      0.1226: real time      0.1229
    EDDIAG:  cpu time      5.5820: real time      5.5966
  RMM-DIIS:  cpu time     20.5781: real time     20.6305
    ORTHCH:  cpu time      0.3958: real time      0.3970
       DOS:  cpu time      0.1467: real time      0.1470
    CHARGE:  cpu time      2.3458: real time      2.3517
    MIXING:  cpu time      0.0323: real time      0.0324
    --------------------------------------------
      LOOP:  cpu time     29.6158: real time     29.6918

 eigenvalue-minimisations  :  1297
 total energy-change (2. order) :-0.5386071E-02  (-0.5823261E-02)
 number of electron     256.0000030 magnetization 
 augmentation part      -14.6475527 magnetization 

 Broyden mixing:
  rms(total) = 0.19931E-01    rms(broyden)= 0.19930E-01
  rms(prec ) = 0.23562E-01
  weight for this iteration     100.00

 eigenvalues of (default mixing * dielectric matrix)
  average eigenvalue GAMMA=   1.3387
  1.3387

 Free energy of the ion-electron system (eV)
  ---------------------------------------------------
  alpha Z        PSCENC =       107.03818661
  Ewald energy   TEWEN  =     -7295.97248031
  -Hartree energ DENC   =      -482.73772795
  -exchange      EXHF   =         0.00000000
  -V(xc)+E(xc)   XCENC  =      -575.50999593
  PAW double counting   =     31944.86304938   -30826.08903391
  entropy T*S    EENTRO =        -0.00000000
  eigenvalues    EBANDS =       187.29065069
  atomic energy  EATOM  =      6595.95197522
  Solvation  Ediel_sol  =         0.00000000
  ---------------------------------------------------
  free energy    TOTEN  =      -345.16537620 eV

  energy without entropy =     -345.16537620  energy(sigma->0) =     -345.16537620


--------------------------------------------------------------------------------------------------------




--------------------------------------- Iteration      1(   3)  ---------------------------------------


    POTLOK:  cpu time      0.0802: real time      0.0813
    SETDIJ:  cpu time      0.1172: real time      0.1175
    EDDIAG:  cpu time      6.0069: real time      6.0224
  RMM-DIIS:  cpu time     19.3364: real time     19.3858
    ORTHCH:  cpu time      0.2447: real time      0.2453
       DOS:  cpu time      0.0343: real time      0.0344
    CHARGE:  cpu time      2.7362: real time      2.7432
    MIXING:  cpu time      0.1388: real time      0.1391
    --------------------------------------------
      LOOP:  cpu time     28.6947: real time     28.7690

 eigenvalue-minimisations  :  1505
 total energy-change (2. order) :-0.5193853E-03  (-0.8940183E-03)
 number of electron     256.0000030 magnetization 
 augmentation part      -14.6482459 magnetization 

 Broyden mixing:
  rms(total) = 0.88939E-02    rms(broyden)= 0.88933E-02
  rms(prec ) = 0.10712E-01
  weight for this iteration     100.00

 eigenvalues of (default mixing * dielectric matrix)
  average eigenvalue GAMMA=   1.6468
  1.6468  1.6468

 Free energy of the ion-electron system (eV)
  ---------------------------------------------------
  alpha Z        PSCENC =       107.03818661
  Ewald energy   TEWEN  =     -7295.97248031
  -Hartree energ DENC   =      -482.68608385
  -exchange      EXHF   =         0.00000000
  -V(xc)+E(xc)   XCENC  =      -575.51128912
  PAW double counting   =     31953.43948758   -30834.66636818
  entropy T*S    EENTRO =        -0.00000000
  eigenvalues    EBANDS =       187.24067646
  atomic energy  EATOM  =      6595.95197522
  Solvation  Ediel_sol  =         0.00000000
  ---------------------------------------------------
  free energy    TOTEN  =      -345.16589559 eV

  energy without entropy =     -345.16589559  energy(sigma->0) =     -345.16589559


--------------------------------------------------------------------------------------------------------




--------------------------------------- Iteration      1(   4)  ---------------------------------------


    POTLOK:  cpu time      0.0713: real time      0.0715
    SETDIJ:  cpu time      0.0682: real time      0.0683
    EDDIAG:  cpu time      7.3552: real time      7.3739
  RMM-DIIS:  cpu time     29.5420: real time     29.6150
    ORTHCH:  cpu time      0.3460: real time      0.3471
       DOS:  cpu time      0.1387: real time      0.1390
    CHARGE:  cpu time      2.7911: real time      2.7980
    MIXING:  cpu time      0.3500: real time      0.3509
    --------------------------------------------
      LOOP:  cpu time     40.6624: real time     40.7638

 eigenvalue-minimisations  :  1568
 total energy-change (2. order) :-0.8184483E-04  (-0.1672537E-03)
 number of electron     256.0000030 magnetization 
 augmentation part      -14.6484431 magnetization 

 Broyden mixing:
  rms(total) = 0.45062E-02    rms(broyden)= 0.45060E-02
  rms(prec ) = 0.50180E-02
  weight for this iteration     100.00

 eigenvalues of (default mixing * dielectric matrix)
  average eigenvalue GAMMA=   1.7804
  1.0220  2.3833  1.9360

 Free energy of the ion-electron system (eV)
  ---------------------------------------------------
  alpha Z        PSCENC =       107.03818661
  Ewald energy   TEWEN  =     -7295.97248031
  -Hartree energ DENC   =      -482.66451609
  -exchange      EXHF   =         0.00000000
  -V(xc)+E(xc)   XCENC  =      -575.51161771
  PAW double counting   =     31949.75159594   -30830.98033409
  entropy T*S    EENTRO =        -0.00000000
  eigenvalues    EBANDS =       187.22121300
  atomic energy  EATOM  =      6595.95197522
  Solvation  Ediel_sol  =         0.00000000
  ---------------------------------------------------
  free energy    TOTEN  =      -345.16597743 eV

  energy without entropy =     -345.16597743  energy(sigma->0) =     -345.16597743


--------------------------------------------------------------------------------------------------------




--------------------------------------- Iteration      1(   5)  ---------------------------------------


    POTLOK:  cpu time      0.0838: real time      0.0850
    SETDIJ:  cpu time      0.0019: real time      0.0019
    EDDIAG:  cpu time      7.0315: real time      7.0495
  RMM-DIIS:  cpu time     22.2279: real time     22.2837
    ORTHCH:  cpu time      0.1808: real time      0.1813
       DOS:  cpu time      0.0353: real time      0.0354
    --------------------------------------------
      LOOP:  cpu time     29.5612: real time     29.6368

 eigenvalue-minimisations  :  1140
 total energy-change (2. order) :-0.2183333E-04  (-0.3026467E-04)
 number of electron     256.0000030 magnetization 
 augmentation part      -14.6484431 magnetization 

 Free energy of the ion-electron system (eV)
  ---------------------------------------------------
  alpha Z        PSCENC =       107.03818661
  Ewald energy   TEWEN  =     -7295.97248031
  -Hartree energ DENC   =      -482.65673981
  -exchange      EXHF   =         0.00000000
  -V(xc)+E(xc)   XCENC  =      -575.51177529
  PAW double counting   =     31943.20056279   -30824.43064725
  entropy T*S    EENTRO =        -0.00000000
  eigenvalues    EBANDS =       187.21491878
  atomic energy  EATOM  =      6595.95197522
  Solvation  Ediel_sol  =         0.00000000
  ---------------------------------------------------
  free energy    TOTEN  =      -345.16599927 eV

  energy without entropy =     -345.16599927  energy(sigma->0) =     -345.16599927


--------------------------------------------------------------------------------------------------------




 average (electrostatic) potential at core
  the test charge radii are     0.9892
  (the norm of the test charge is              1.0000)
       1 -83.2783       2 -83.3194       3 -83.3143       4 -83.3185       5 -83.3295
       6 -83.3229       7 -83.3313       8 -83.3448       9 -83.3066      10 -83.3597
      11 -83.3316      12 -83.3412      13 -83.3139      14 -83.3291      15 -83.3328
      16 -83.3187      17 -83.3275      18 -83.2920      19 -83.3393      20 -83.3412
      21 -83.3196      22 -83.3227      23 -83.3573      24 -83.2922      25 -83.3303
      26 -83.3385      27 -83.3096      28 -83.2759      29 -83.2888      30 -83.3071
      31 -83.2899      32 -83.3591      33 -83.3261      34 -83.2969      35 -83.3281
      36 -83.3471      37 -83.3240      38 -83.3090      39 -83.3110      40 -83.3225
      41 -83.3023      42 -83.3410      43 -83.3158      44 -83.2842      45 -83.2983
      46 -83.3178      47 -83.3034      48 -83.3480      49 -83.3262      50 -83.3522
      51 -83.2857      52 -83.3113      53 -83.2809      54 -83.3144      55 -83.3164
      56 -83.3309      57 -83.2948      58 -83.2735      59 -83.3373      60 -83.3310
      61 -83.3461      62 -83.3197      63 -83.3367      64 -83.2585
 
 
 
 E-fermi :   6.0026     XC(G=0):  -9.3916     alpha+bet :-11.9161

 Fermi energy:         6.0025611120

 k-point     1 :       0.2500    0.2500    0.2500
  band No.  band energies     occupation 
      1      -5.9716      2.00000
      2      -5.4848      2.00000
      3      -5.4421      2.00000
      4      -5.3660      2.00000
      5      -4.9705      2.00000
      6      -4.9295      2.00000
      7      -4.8381      2.00000
      8      -4.4804      2.00000
      9      -4.4282      2.00000
     10      -4.3988      2.00000
     11      -4.3162      2.00000
     12      -4.0426      2.00000
     13      -4.0061      2.00000
     14      -3.9795      2.00000
     15      -3.9396      2.00000
     16      -3.8951      2.00000
     17      -3.8680      2.00000
     18      -3.7605      2.00000
     19      -3.7285      2.00000
     20      -3.6788      2.00000
     21      -3.2912      2.00000
     22      -3.2594      2.00000
     23      -3.1663      2.00000
     24      -2.9248      2.00000
     25      -2.9081      2.00000
     26      -2.8343      2.00000
     27      -2.7609      2.00000
     28      -2.7431      2.00000
     29      -2.6812      2.00000
     30      -2.6622      2.00000
     31      -2.6405      2.00000
     32      -2.5932      2.00000
     33      -1.2102      2.00000
     34      -1.2032      2.00000
     35      -1.1755      2.00000
     36      -1.1456      2.00000
     37      -1.1394      2.00000
     38      -1.1074      2.00000
     39      -1.0576      2.00000
     40      -1.0356      2.00000
     41      -1.0051      2.00000
     42      -0.9571      2.00000
     43      -0.9235      2.00000
     44      -0.9078      2.00000
     45      -0.8813      2.00000
     46      -0.8408      2.00000
     47      -0.7983      2.00000
     48      -0.1573      2.00000
     49      -0.1151      2.00000
     50      -0.0871      2.00000
     51      -0.0585      2.00000
     52      -0.0319      2.00000
     53      -0.0101      2.00000
     54       0.0202      2.00000
     55       0.8118      2.00000
     56       0.8527      2.00000
     57       0.8614      2.00000
     58       1.1302      2.00000
     59       1.1603      2.00000
     60       1.1774      2.00000
     61       1.6836      2.00000
     62       1.6975      2.00000
     63       1.7238      2.00000
     64       1.7303      2.00000
     65       1.7627      2.00000
     66       1.7687      2.00000
     67       1.7961      2.00000
     68       1.8192      2.00000
     69       1.8339      2.00000
     70       2.3242      2.00000
     71       2.3365      2.00000
     72       2.3617      2.00000
     73       2.4011      2.00000
     74       2.4286      2.00000
     75       2.4536      2.00000
     76       2.4687      2.00000
     77       2.5023      2.00000
     78       2.5237      2.00000
     79       2.5624      2.00000
     80       2.5730      2.00000
     81       2.6114      2.00000
     82       2.7673      2.00000
     83       2.8108      2.00000
     84       2.8262      2.00000
     85       2.8538      2.00000
     86       2.8874      2.00000
     87       2.9050      2.00000
     88       3.0771      2.00000
     89       3.0909      2.00000
     90       3.1060      2.00000
     91       3.1247      2.00000
     92       3.1444      2.00000
     93       3.1642      2.00000
     94       3.4187      2.00000
     95       3.4385      2.00000
     96       3.4517      2.00000
     97       3.4961      2.00000
     98       3.5395      2.00000
     99       3.5523      2.00000
    100       3.5576      2.00000
    101       3.6063      2.00000
    102       3.6298      2.00000
    103       3.7813      2.00000
    104       3.8232      2.00000
    105       3.8516      2.00000
    106       3.8769      2.00000
    107       3.9006      2.00000
    108       3.9093      2.00000
    109       3.9288      2.00000
    110       3.9518      2.00000
    111       3.9703      2.00000
    112       4.1759      2.00000
    113       4.2337      2.00000
    114       4.2577      2.00000
    115       4.2895      2.00000
    116       4.4466      2.00000
    117       4.4837      2.00000
    118       4.5033      2.00000
    119       4.5388      2.00000
    120       4.5551      2.00000
    121       4.5866      2.00000
    122       4.6956      2.00000
    123       4.7278      2.00000
    124       4.9962      2.00000
    125       5.0406      2.00000
    126       5.0750      2.00000
    127       5.4979      2.00000
    128       5.5221      2.00000
    129       6.6266      0.00000
    130       6.6796      0.00000
    131       6.7228      0.00000
    132       7.1008      0.00000
    133       7.1229      0.00000
    134       7.1574      0.00000
    135       7.3876      0.00000
    136       7.5840      0.00000
    137       7.5968      0.00000
    138       7.6239      0.00000
    139       7.6725      0.00000
    140       7.7468      0.00000
    141       7.7630      0.00000
    142       7.8807      0.00000
    143       7.9034      0.00000
    144       7.9249      0.00000
    145       7.9525      0.00000
    146       7.9755      0.00000
    147       8.0081      0.00000
    148       8.0991      0.00000
    149       8.1331      0.00000
    150       8.1442      0.00000
    151       8.1730      0.00000
    152       8.2131      0.00000
    153       8.2376      0.00000
    154       8.2667      0.00000
    155       8.4545      0.00000
    156       8.4706      0.00000
    157       8.4831      0.00000
    158       8.5142      0.00000
    159       8.5944      0.00000
    160       8.6298      0.00000
    161       8.6511      0.00000

 k-point     2 :       0.2500   -0.2500    0.2500
  band No.  band energies     occupation 
      1      -5.9717      2.00000
      2      -5.4852      2.00000
      3      -5.4418      2.00000
      4      -5.3659      2.00000
      5      -4.9690      2.00000
      6      -4.9302      2.00000
      7      -4.8374      2.00000
      8      -4.4771      2.00000
      9      -4.4350      2.00000
     10      -4.3948      2.00000
     11      -4.3172      2.00000
     12      -4.0746      2.00000
     13      -3.9976      2.00000
     14      -3.9666      2.00000
     15      -3.9366      2.00000
     16      -3.8934      2.00000
     17      -3.8681      2.00000
     18      -3.7384      2.00000
     19      -3.7286      2.00000
     20      -3.6900      2.00000
     21      -3.2901      2.00000
     22      -3.2585      2.00000
     23      -3.1706      2.00000
     24      -2.9281      2.00000
     25      -2.8981      2.00000
     26      -2.8609      2.00000
     27      -2.7775      2.00000
     28      -2.7014      2.00000
     29      -2.6866      2.00000
     30      -2.6722      2.00000
     31      -2.6362      2.00000
     32      -2.5892      2.00000
     33      -1.2201      2.00000
     34      -1.2047      2.00000
     35      -1.1749      2.00000
     36      -1.1480      2.00000
     37      -1.1279      2.00000
     38      -1.1105      2.00000
     39      -1.0734      2.00000
     40      -1.0542      2.00000
     41      -0.9953      2.00000
     42      -0.9414      2.00000
     43      -0.9288      2.00000
     44      -0.8970      2.00000
     45      -0.8752      2.00000
     46      -0.8393      2.00000
     47      -0.7935      2.00000
     48      -0.1598      2.00000
     49      -0.1278      2.00000
     50      -0.0731      2.00000
     51      -0.0569      2.00000
     52      -0.0272      2.00000
     53      -0.0131      2.00000
     54       0.0163      2.00000
     55       0.8084      2.00000
     56       0.8393      2.00000
     57       0.8743      2.00000
     58       1.1401      2.00000
     59       1.1576      2.00000
     60       1.1734      2.00000
     61       1.6811      2.00000
     62       1.7043      2.00000
     63       1.7215      2.00000
     64       1.7330      2.00000
     65       1.7491      2.00000
     66       1.7745      2.00000
     67       1.7962      2.00000
     68       1.8162      2.00000
     69       1.8340      2.00000
     70       2.3055      2.00000
     71       2.3373      2.00000
     72       2.3564      2.00000
     73       2.4031      2.00000
     74       2.4394      2.00000
     75       2.4561      2.00000
     76       2.4676      2.00000
     77       2.4907      2.00000
     78       2.5099      2.00000
     79       2.5674      2.00000
     80       2.5855      2.00000
     81       2.6000      2.00000
     82       2.7797      2.00000
     83       2.8128      2.00000
     84       2.8392      2.00000
     85       2.8437      2.00000
     86       2.8863      2.00000
     87       2.9057      2.00000
     88       3.0839      2.00000
     89       3.1046      2.00000
     90       3.1079      2.00000
     91       3.1293      2.00000
     92       3.1365      2.00000
     93       3.1650      2.00000
     94       3.4214      2.00000
     95       3.4557      2.00000
     96       3.4825      2.00000
     97       3.4957      2.00000
     98       3.5185      2.00000
     99       3.5513      2.00000
    100       3.5735      2.00000
    101       3.6029      2.00000
    102       3.6203      2.00000
    103       3.7901      2.00000
    104       3.8315      2.00000
    105       3.8469      2.00000
    106       3.8705      2.00000
    107       3.8738      2.00000
    108       3.9081      2.00000
    109       3.9315      2.00000
    110       3.9448      2.00000
    111       3.9619      2.00000
    112       4.1810      2.00000
    113       4.2342      2.00000
    114       4.2599      2.00000
    115       4.2646      2.00000
    116       4.4481      2.00000
    117       4.4837      2.00000
    118       4.5032      2.00000
    119       4.5207      2.00000
    120       4.5596      2.00000
    121       4.5840      2.00000
    122       4.7116      2.00000
    123       4.7403      2.00000
    124       4.9996      2.00000
    125       5.0451      2.00000
    126       5.0588      2.00000
    127       5.5024      2.00000
    128       5.5239      2.00000
    129       6.6486      0.00000
    130       6.6824      0.00000
    131       6.6982      0.00000
    132       7.1057      0.00000
    133       7.1284      0.00000
    134       7.1565      0.00000
    135       7.3863      0.00000
    136       7.5935      0.00000
    137       7.6130      0.00000
    138       7.6270      0.00000
    139       7.6985      0.00000
    140       7.7304      0.00000
    141       7.7596      0.00000
    142       7.8819      0.00000
    143       7.9059      0.00000
    144       7.9277      0.00000
    145       7.9410      0.00000
    146       7.9682      0.00000
    147       8.0140      0.00000
    148       8.0517      0.00000
    149       8.1157      0.00000
    150       8.1416      0.00000
    151       8.1812      0.00000
    152       8.2086      0.00000
    153       8.2253      0.00000
    154       8.2625      0.00000
    155       8.4607      0.00000
    156       8.4705      0.00000
    157       8.4831      0.00000
    158       8.5566      0.00000
    159       8.5897      0.00000
    160       8.6236      0.00000
    161       8.6619      0.00000

 k-point     3 :      -0.2500    0.2500    0.2500
  band No.  band energies     occupation 
      1      -5.9736      2.00000
      2      -5.4681      2.00000
      3      -5.4348      2.00000
      4      -5.3864      2.00000
      5      -4.9571      2.00000
      6      -4.9161      2.00000
      7      -4.8811      2.00000
      8      -4.4937      2.00000
      9      -4.4222      2.00000
     10      -4.3852      2.00000
     11      -4.3151      2.00000
     12      -4.0403      2.00000
     13      -3.9855      2.00000
     14      -3.9459      2.00000
     15      -3.9363      2.00000
     16      -3.9111      2.00000
     17      -3.8831      2.00000
     18      -3.7584      2.00000
     19      -3.7361      2.00000
     20      -3.6845      2.00000
     21      -3.2996      2.00000
     22      -3.2476      2.00000
     23      -3.2054      2.00000
     24      -2.9244      2.00000
     25      -2.8952      2.00000
     26      -2.8328      2.00000
     27      -2.7634      2.00000
     28      -2.7101      2.00000
     29      -2.6832      2.00000
     30      -2.6552      2.00000
     31      -2.6444      2.00000
     32      -2.6118      2.00000
     33      -1.2226      2.00000
     34      -1.2077      2.00000
     35      -1.1743      2.00000
     36      -1.1563      2.00000
     37      -1.1334      2.00000
     38      -1.1127      2.00000
     39      -1.0917      2.00000
     40      -1.0344      2.00000
     41      -0.9945      2.00000
     42      -0.9663      2.00000
     43      -0.9237      2.00000
     44      -0.9034      2.00000
     45      -0.8666      2.00000
     46      -0.8167      2.00000
     47      -0.7639      2.00000
     48      -0.1601      2.00000
     49      -0.1332      2.00000
     50      -0.0929      2.00000
     51      -0.0552      2.00000
     52      -0.0272      2.00000
     53      -0.0082      2.00000
     54       0.0035      2.00000
     55       0.8199      2.00000
     56       0.8504      2.00000
     57       0.8744      2.00000
     58       1.1461      2.00000
     59       1.1649      2.00000
     60       1.1796      2.00000
     61       1.6700      2.00000
     62       1.7057      2.00000
     63       1.7123      2.00000
     64       1.7389      2.00000
     65       1.7627      2.00000
     66       1.7745      2.00000
     67       1.7920      2.00000
     68       1.8114      2.00000
     69       1.8314      2.00000
     70       2.3211      2.00000
     71       2.3334      2.00000
     72       2.3575      2.00000
     73       2.3970      2.00000
     74       2.4106      2.00000
     75       2.4553      2.00000
     76       2.4668      2.00000
     77       2.5044      2.00000
     78       2.5096      2.00000
     79       2.5492      2.00000
     80       2.5913      2.00000
     81       2.5958      2.00000
     82       2.7833      2.00000
     83       2.8016      2.00000
     84       2.8329      2.00000
     85       2.8546      2.00000
     86       2.8698      2.00000
     87       2.9016      2.00000
     88       3.0833      2.00000
     89       3.0901      2.00000
     90       3.1063      2.00000
     91       3.1160      2.00000
     92       3.1305      2.00000
     93       3.1407      2.00000
     94       3.4287      2.00000
     95       3.4595      2.00000
     96       3.4876      2.00000
     97       3.5036      2.00000
     98       3.5196      2.00000
     99       3.5679      2.00000
    100       3.5821      2.00000
    101       3.6015      2.00000
    102       3.6229      2.00000
    103       3.7895      2.00000
    104       3.8411      2.00000
    105       3.8626      2.00000
    106       3.8802      2.00000
    107       3.9050      2.00000
    108       3.9100      2.00000
    109       3.9275      2.00000
    110       3.9447      2.00000
    111       3.9628      2.00000
    112       4.1896      2.00000
    113       4.2309      2.00000
    114       4.2433      2.00000
    115       4.2610      2.00000
    116       4.4646      2.00000
    117       4.4695      2.00000
    118       4.5052      2.00000
    119       4.5375      2.00000
    120       4.5798      2.00000
    121       4.6090      2.00000
    122       4.7104      2.00000
    123       4.7207      2.00000
    124       4.9987      2.00000
    125       5.0128      2.00000
    126       5.0647      2.00000
    127       5.5006      2.00000
    128       5.5088      2.00000
    129       6.6227      0.00000
    130       6.6632      0.00000
    131       6.7078      0.00000
    132       7.1096      0.00000
    133       7.1322      0.00000
    134       7.1536      0.00000
    135       7.3913      0.00000
    136       7.5855      0.00000
    137       7.6092      0.00000
    138       7.6313      0.00000
    139       7.6884      0.00000
    140       7.7551      0.00000
    141       7.7613      0.00000
    142       7.8763      0.00000
    143       7.9148      0.00000
    144       7.9217      0.00000
    145       7.9507      0.00000
    146       7.9666      0.00000
    147       8.0046      0.00000
    148       8.0921      0.00000
    149       8.1332      0.00000
    150       8.1503      0.00000
    151       8.1812      0.00000
    152       8.2051      0.00000
    153       8.2141      0.00000
    154       8.2586      0.00000
    155       8.4575      0.00000
    156       8.4712      0.00000
    157       8.4870      0.00000
    158       8.5437      0.00000
    159       8.5808      0.00000
    160       8.6197      0.00000
    161       8.6340      0.00000

 k-point     4 :      -0.2500   -0.2500    0.2500
  band No.  band energies     occupation 
      1      -5.9728      2.00000
      2      -5.4593      2.00000
      3      -5.4460      2.00000
      4      -5.3898      2.00000
      5      -4.9502      2.00000
      6      -4.9218      2.00000
      7      -4.8769      2.00000
      8      -4.4737      2.00000
      9      -4.4051      2.00000
     10      -4.3973      2.00000
     11      -4.3329      2.00000
     12      -4.0298      2.00000
     13      -4.0002      2.00000
     14      -3.9538      2.00000
     15      -3.9413      2.00000
     16      -3.9271      2.00000
     17      -3.8650      2.00000
     18      -3.7673      2.00000
     19      -3.7304      2.00000
     20      -3.6965      2.00000
     21      -3.2631      2.00000
     22      -3.2465      2.00000
     23      -3.2034      2.00000
     24      -2.9323      2.00000
     25      -2.8832      2.00000
     26      -2.8539      2.00000
     27      -2.7447      2.00000
     28      -2.7258      2.00000
     29      -2.6901      2.00000
     30      -2.6621      2.00000
     31      -2.6409      2.00000
     32      -2.6066      2.00000
     33      -1.2326      2.00000
     34      -1.2028      2.00000
     35      -1.1676      2.00000
     36      -1.1458      2.00000
     37      -1.1240      2.00000
     38      -1.1034      2.00000
     39      -1.0724      2.00000
     40      -1.0418      2.00000
     41      -1.0041      2.00000
     42      -0.9630      2.00000
     43      -0.9130      2.00000
     44      -0.9017      2.00000
     45      -0.8695      2.00000
     46      -0.8532      2.00000
     47      -0.7887      2.00000
     48      -0.1505      2.00000
     49      -0.1097      2.00000
     50      -0.0824      2.00000
     51      -0.0682      2.00000
     52      -0.0233      2.00000
     53      -0.0135      2.00000
     54       0.0030      2.00000
     55       0.8179      2.00000
     56       0.8440      2.00000
     57       0.8613      2.00000
     58       1.1446      2.00000
     59       1.1562      2.00000
     60       1.1759      2.00000
     61       1.6753      2.00000
     62       1.7030      2.00000
     63       1.7245      2.00000
     64       1.7327      2.00000
     65       1.7608      2.00000
     66       1.7670      2.00000
     67       1.7968      2.00000
     68       1.8140      2.00000
     69       1.8225      2.00000
     70       2.3189      2.00000
     71       2.3451      2.00000
     72       2.3634      2.00000
     73       2.4127      2.00000
     74       2.4242      2.00000
     75       2.4592      2.00000
     76       2.4671      2.00000
     77       2.4947      2.00000
     78       2.5189      2.00000
     79       2.5610      2.00000
     80       2.5779      2.00000
     81       2.5958      2.00000
     82       2.7838      2.00000
     83       2.8273      2.00000
     84       2.8370      2.00000
     85       2.8525      2.00000
     86       2.8697      2.00000
     87       2.8933      2.00000
     88       3.0688      2.00000
     89       3.0986      2.00000
     90       3.1097      2.00000
     91       3.1194      2.00000
     92       3.1456      2.00000
     93       3.1642      2.00000
     94       3.4349      2.00000
     95       3.4556      2.00000
     96       3.4779      2.00000
     97       3.5006      2.00000
     98       3.5137      2.00000
     99       3.5482      2.00000
    100       3.5671      2.00000
    101       3.5997      2.00000
    102       3.6139      2.00000
    103       3.8071      2.00000
    104       3.8273      2.00000
    105       3.8578      2.00000
    106       3.8806      2.00000
    107       3.8878      2.00000
    108       3.8999      2.00000
    109       3.9262      2.00000
    110       3.9427      2.00000
    111       3.9674      2.00000
    112       4.1752      2.00000
    113       4.2244      2.00000
    114       4.2380      2.00000
    115       4.2758      2.00000
    116       4.4506      2.00000
    117       4.4936      2.00000
    118       4.4979      2.00000
    119       4.5376      2.00000
    120       4.5562      2.00000
    121       4.5845      2.00000
    122       4.7088      2.00000
    123       4.7452      2.00000
    124       5.0098      2.00000
    125       5.0433      2.00000
    126       5.0472      2.00000
    127       5.4973      2.00000
    128       5.5270      2.00000
    129       6.6340      0.00000
    130       6.6681      0.00000
    131       6.7062      0.00000
    132       7.1164      0.00000
    133       7.1262      0.00000
    134       7.1438      0.00000
    135       7.3956      0.00000
    136       7.5772      0.00000
    137       7.6069      0.00000
    138       7.6143      0.00000
    139       7.7002      0.00000
    140       7.7294      0.00000
    141       7.7682      0.00000
    142       7.8921      0.00000
    143       7.9130      0.00000
    144       7.9331      0.00000
    145       7.9462      0.00000
    146       7.9702      0.00000
    147       8.0032      0.00000
    148       8.1095      0.00000
    149       8.1273      0.00000
    150       8.1496      0.00000
    151       8.1643      0.00000
    152       8.2074      0.00000
    153       8.2158      0.00000
    154       8.2696      0.00000
    155       8.4583      0.00000
    156       8.4729      0.00000
    157       8.4878      0.00000
    158       8.5482      0.00000
    159       8.5782      0.00000
    160       8.6231      0.00000
    161       8.6423      0.00000


--------------------------------------------------------------------------------------------------------


 soft charge-density along one line, spin component           1
         0         1         2         3         4         5         6         7         8         9
 total charge-density along one line
 
 pseudopotential strength for first ion, spin component:           1
 18.417  25.695   0.001  -0.001  -0.001   0.002  -0.002  -0.001
 25.695  35.854   0.002  -0.002  -0.001   0.003  -0.003  -0.002
  0.001   0.002   4.179  -0.000   0.000   7.787  -0.000   0.000
 -0.001  -0.002  -0.000   4.179   0.000  -0.000   7.787   0.000
 -0.001  -0.001   0.000   0.000   4.179   0.000   0.000   7.787
  0.002   0.003   7.787  -0.000   0.000  14.521  -0.001   0.000
 -0.002  -0.003  -0.000   7.787   0.000  -0.001  14.521   0.000
 -0.001  -0.002   0.000   0.000   7.787   0.000   0.000  14.521
 total augmentation occupancy for first ion, spin component:           1
  5.991  -2.312   0.030   0.129  -0.208  -0.010  -0.047   0.074
 -2.312   1.003  -0.008  -0.078   0.098   0.004   0.025  -0.034
  0.030  -0.008   3.304  -0.178  -0.012  -0.800   0.054   0.006
  0.129  -0.078  -0.178   3.288   0.083   0.054  -0.794  -0.026
 -0.208   0.098  -0.012   0.083   3.345   0.006  -0.026  -0.815
 -0.010   0.004  -0.800   0.054   0.006   0.202  -0.016  -0.002
 -0.047   0.025   0.054  -0.794  -0.026  -0.016   0.200   0.008
  0.074  -0.034   0.006  -0.026  -0.815  -0.002   0.008   0.206


------------------------ aborting loop because EDIFF is reached ----------------------------------------


    CHARGE:  cpu time      2.5316: real time      2.5381
    FORLOC:  cpu time      0.0357: real time      0.0358
    FORNL :  cpu time      7.3140: real time      7.3322
    STRESS:  cpu time     30.2320: real time     30.3080
    FORCOR:  cpu time      0.5787: real time      0.5801
    FORHAR:  cpu time      0.0112: real time      1.3836
    MIXING:  cpu time      0.2827: real time      0.2834
    OFIELD:  cpu time      0.0000: real time      0.0000

  FORCE on cell =-STRESS in cart. coord.  units (eV):
  Direction    XX          YY          ZZ          XY          YZ          ZX
  --------------------------------------------------------------------------------------
  Alpha Z   107.03819   107.03819   107.03819
  Ewald   -2432.35899 -2433.68982 -2429.96882     6.90907    -6.06982    11.32703
  Hartree   160.65178   159.86402   162.13937     0.99111    -1.01011     2.32965
  E(xc)    -811.19813  -811.17345  -811.21321    -0.07541     0.04169    -0.09862
  Local    -942.81261  -940.60565  -946.84661    -7.67811     6.76201   -13.15275
  n-local  2492.41212  2492.02678  2492.66962     1.58532    -1.01949     2.14432
  augment  -372.05268  -372.02903  -372.07127    -0.11064     0.06087    -0.13757
  Kinetic  1808.84273  1809.01126  1808.79789    -0.28913     0.35387    -0.39667
  Fock        0.00000     0.00000     0.00000     0.00000     0.00000     0.00000
  -------------------------------------------------------------------------------------
  Total      10.52241    10.44230    10.54516     1.33220    -0.88098     2.01540
  in kB      13.08730    12.98767    13.11560     1.65693    -1.09573     2.50666
  external pressure =       13.06 kB  Pullay stress =        0.00 kB


 VOLUME and BASIS-vectors are now :
 -----------------------------------------------------------------------------
  energy-cutoff  :      250.00
  volume of cell :     1288.18
      direct lattice vectors                 reciprocal lattice vectors
    10.879857590  0.000000000  0.000000000     0.091912968  0.000076957  0.000103804
    -0.009110900 10.881509720  0.000000000     0.000000000  0.091899013 -0.000061979
    -0.012294750  0.007338310 10.880863060     0.000000000  0.000000000  0.091904474

  length of vectors
    10.879857590 10.881513534 10.880872481     0.091913059  0.091899034  0.091904474


 FORCES acting on ions
    electron-ion (+dipol)            ewald-force                    non-local-force                 convergence-correction
 -----------------------------------------------------------------------------------------------
   -.497E+01 0.270E+01 0.528E+01   0.435E+01 -.278E+01 -.472E+01   0.157E+01 -.321E+00 -.608E+00   0.145E-02 0.389E-03 -.577E-03
   -.123E+01 0.573E+01 -.172E+01   0.930E+00 -.547E+01 0.140E+01   -.231E-01 -.732E+00 0.371E+00   0.600E-03 0.500E-03 0.457E-04
   -.312E+01 0.768E+00 0.473E+01   0.278E+01 -.915E+00 -.432E+01   0.552E+00 0.338E-01 -.642E+00   0.114E-02 -.138E-03 0.642E-03
   0.903E+00 0.382E+01 0.286E+01   -.988E+00 -.384E+01 -.258E+01   0.170E+00 -.808E+00 -.738E+00   0.488E-03 0.934E-03 0.720E-04
   -.381E+00 0.305E+01 0.388E+01   0.315E+00 -.319E+01 -.376E+01   -.256E+00 0.337E+00 -.249E+00   0.137E-02 0.162E-02 -.491E-03
   -.362E+01 0.330E+01 0.282E+01   0.347E+01 -.316E+01 -.253E+01   0.579E+00 0.643E-03 -.441E+00   -.297E-03 0.201E-03 -.944E-04
   -.224E+01 0.204E+01 0.194E+01   0.233E+01 -.232E+01 -.166E+01   0.360E+00 0.261E+00 -.208E+00   0.337E-04 0.663E-03 -.527E-03
   0.192E+01 0.128E+00 -.213E+01   -.197E+01 -.790E-01 0.211E+01   -.410E+00 0.462E+00 0.133E+01   0.701E-03 0.529E-03 0.708E-03
   0.334E+01 0.222E+01 -.478E+01   -.348E+01 -.212E+01 0.456E+01   -.162E-01 -.359E-01 0.832E+00   0.328E-03 0.924E-03 0.437E-03
   0.153E+01 0.109E+01 -.240E+01   -.142E+01 -.123E+01 0.211E+01   0.116E+00 -.184E+00 -.240E+00   0.516E-04 0.714E-03 -.556E-03
   0.438E+01 0.568E+01 -.371E+01   -.422E+01 -.511E+01 0.352E+01   -.447E+00 -.972E+00 0.703E+00   0.308E-03 0.731E-03 -.239E-03
   0.602E+01 0.356E+01 -.194E+01   -.558E+01 -.336E+01 0.162E+01   -.733E+00 -.294E+00 0.191E+00   -.197E-03 0.567E-03 -.116E-03
   0.709E+01 0.199E+01 -.631E+00   -.690E+01 -.222E+01 0.864E+00   -.641E+00 -.197E+00 -.640E+00   0.507E-04 0.296E-03 -.232E-03
   -.219E-01 -.182E+01 0.537E+00   0.119E+00 0.174E+01 -.273E+00   -.597E+00 0.260E+00 -.113E+00   -.797E-03 0.339E-03 0.911E-04
   -.186E+01 0.508E+01 -.473E+01   0.156E+01 -.494E+01 0.448E+01   0.484E+00 -.659E+00 0.123E+01   -.574E-03 0.966E-03 0.607E-03
   0.203E+01 -.156E+01 0.169E+01   -.213E+01 0.123E+01 -.125E+01   -.138E+00 0.673E+00 -.399E+00   0.125E-02 0.194E-03 -.283E-03
   0.588E+00 -.290E+01 -.353E+00   -.705E+00 0.264E+01 0.809E-01   0.193E+00 0.318E+00 0.561E+00   0.687E-03 -.594E-03 0.301E-03
   0.434E+01 -.570E+01 0.276E+01   -.388E+01 0.543E+01 -.238E+01   -.712E+00 0.841E+00 -.682E+00   0.120E-02 -.710E-03 -.428E-03
   -.681E+00 -.440E+01 -.167E+01   0.421E+00 0.395E+01 0.113E+01   0.528E+00 0.800E+00 0.295E+00   0.673E-03 -.264E-03 -.208E-03
   0.251E+01 -.238E+01 0.718E+00   -.235E+01 0.214E+01 -.516E+00   -.593E+00 0.419E+00 -.349E+00   0.375E-03 0.123E-03 0.265E-03
   0.590E+01 -.183E+01 0.231E+01   -.548E+01 0.210E+01 -.229E+01   -.100E+01 -.336E+00 -.344E+00   0.107E-02 -.163E-02 0.834E-04
   -.231E+01 -.414E+01 -.204E+01   0.216E+01 0.398E+01 0.152E+01   0.655E+00 0.454E+00 0.639E+00   -.928E-04 -.322E-03 0.760E-03
   0.263E+01 -.448E+01 0.104E+01   -.188E+01 0.435E+01 -.741E+00   -.140E+01 0.303E+00 -.217E+00   -.110E-02 -.137E-02 -.800E-03
   0.236E+01 0.115E+01 -.222E+01   -.215E+01 -.953E+00 0.187E+01   -.328E+00 -.412E+00 0.194E+00   0.118E-02 -.443E-03 -.569E-03
   -.130E-01 -.111E+01 -.600E+00   -.121E+00 0.132E+01 0.666E+00   0.240E+00 0.210E+00 -.388E-01   0.104E-02 -.481E-03 0.748E-05
   0.375E+00 0.102E+01 0.197E+00   -.575E+00 -.609E+00 0.624E-01   -.686E-01 -.394E+00 -.121E+00   -.540E-03 -.495E-03 -.107E-03
   0.414E+01 -.106E+00 -.349E+00   -.389E+01 0.586E+00 0.134E+00   -.338E+00 -.761E+00 0.943E-01   0.192E-03 -.116E-02 0.410E-03
   0.597E+01 -.104E+01 -.111E+01   -.552E+01 0.131E+01 0.104E+01   -.108E+01 -.257E+00 0.228E+00   -.793E-03 -.162E-02 -.150E-04
   0.372E+01 -.223E+01 0.278E+01   -.379E+01 0.215E+01 -.229E+01   0.114E-01 -.203E+00 -.908E+00   -.687E-04 -.878E-03 -.776E-03
   -.687E+00 0.589E+00 -.199E+01   0.771E+00 -.512E+00 0.156E+01   -.144E+00 -.381E+00 0.413E+00   -.623E-03 -.157E-03 0.345E-03
   -.139E+01 -.405E+01 0.247E+01   0.114E+01 0.379E+01 -.221E+01   0.344E+00 0.742E+00 -.553E+00   -.119E-02 0.191E-03 -.233E-03
   0.210E+00 -.285E+01 -.268E+01   -.748E+00 0.239E+01 0.233E+01   0.565E+00 0.903E+00 0.681E+00   0.771E-03 -.222E-03 0.285E-03
   0.183E+01 -.363E+01 -.439E+01   -.156E+01 0.296E+01 0.419E+01   -.203E+00 0.942E+00 0.461E+00   -.131E-02 0.809E-03 0.187E-03
   0.166E+01 -.247E+01 0.105E+01   -.175E+01 0.157E+01 -.887E+00   -.187E+00 0.124E+01 -.165E+00   0.623E-03 0.179E-02 0.289E-03
   0.350E+01 0.112E+01 -.126E+01   -.332E+01 -.121E+01 0.122E+01   -.855E+00 0.218E+00 0.347E+00   -.104E-02 0.109E-02 0.119E-02
   -.143E+01 0.833E+01 0.174E+00   0.155E+01 -.788E+01 -.252E+00   -.231E-01 -.125E+01 -.510E+00   -.103E-02 -.408E-04 -.182E-03
   0.694E+01 0.573E+01 -.334E+01   -.632E+01 -.526E+01 0.290E+01   -.131E+01 -.798E+00 0.502E+00   -.117E-02 0.802E-03 0.154E-02
   -.759E-01 0.604E+00 0.357E+01   0.783E-01 -.198E+00 -.331E+01   0.569E+00 -.343E+00 -.103E+01   0.167E-03 0.381E-03 -.294E-03
   0.352E+01 0.294E+01 -.402E+01   -.322E+01 -.306E+01 0.386E+01   -.497E+00 0.156E+00 0.250E+00   -.414E-04 0.521E-03 0.262E-03
   -.207E+01 0.170E+01 -.357E+01   0.203E+01 -.176E+01 0.323E+01   -.513E-01 0.171E+00 0.117E+01   -.901E-04 0.873E-03 0.367E-03
   -.726E+01 0.410E+00 0.430E+01   0.667E+01 -.198E+00 -.394E+01   0.135E+01 0.350E+00 -.505E+00   0.811E-04 0.923E-03 -.530E-03
   -.699E+00 0.421E+01 -.683E+00   0.662E+00 -.401E+01 0.903E+00   -.162E+00 -.310E+00 -.208E+00   -.270E-04 0.121E-02 -.133E-03
   -.286E+01 0.383E+01 0.619E+01   0.256E+01 -.368E+01 -.568E+01   0.693E+00 -.315E+00 -.110E+01   -.435E-03 -.222E-03 -.435E-05
   -.330E+01 0.236E+01 -.488E+00   0.341E+01 -.242E+01 0.371E+00   0.257E+00 -.699E-01 0.766E-01   -.868E-03 0.267E-03 0.267E-03
   -.487E+01 0.480E+01 0.448E+01   0.461E+01 -.466E+01 -.416E+01   0.288E+00 -.817E+00 -.544E+00   -.148E-02 0.673E-03 -.846E-03
   -.224E+01 0.312E+00 0.192E-01   0.191E+01 -.296E+00 -.154E-01   0.668E+00 -.580E+00 -.255E+00   0.544E-03 -.383E-03 0.117E-03
   -.600E+00 0.297E+01 0.575E+01   0.343E+00 -.314E+01 -.529E+01   0.786E+00 0.395E+00 -.113E+01   0.101E-02 0.210E-02 -.743E-03
   -.242E+01 -.223E+00 -.195E+01   0.215E+01 0.251E+00 0.175E+01   0.258E+00 0.417E+00 0.639E+00   -.450E-03 0.531E-03 0.213E-03
   -.411E+01 0.128E+01 0.592E+00   0.390E+01 -.107E+01 -.728E+00   0.865E+00 -.678E+00 0.306E+00   -.196E-03 -.114E-02 0.114E-02
   -.380E+01 -.350E+01 0.213E+01   0.352E+01 0.307E+01 -.195E+01   0.234E+00 0.247E-01 -.458E-01   -.748E-03 -.604E-03 0.366E-04
   -.104E+01 -.528E+01 -.724E+00   0.110E+01 0.490E+01 0.549E+00   -.169E+00 0.709E+00 0.390E+00   -.261E-03 0.125E-03 0.428E-03
   -.220E+01 -.857E+01 0.195E+01   0.238E+01 0.816E+01 -.198E+01   -.354E+00 0.149E+01 -.282E-01   -.280E-03 0.748E-03 0.126E-03
   -.329E+01 -.176E+01 0.548E+01   0.324E+01 0.212E+01 -.507E+01   0.185E+00 -.240E+00 -.748E+00   0.925E-04 -.115E-02 0.117E-03
   -.823E+00 0.656E+01 -.761E+00   0.965E+00 -.563E+01 0.416E+00   -.169E+00 -.146E+01 0.265E+00   0.714E-03 -.139E-02 0.744E-03
   -.351E+00 -.324E+01 -.265E+01   0.492E+00 0.324E+01 0.265E+01   0.198E-01 -.740E-01 0.673E-01   -.903E-03 -.549E-03 0.155E-03
   0.615E+00 -.588E+01 0.133E+01   -.225E+00 0.540E+01 -.119E+01   -.676E+00 0.430E+00 -.215E+00   -.685E-03 -.219E-03 -.212E-03
   -.439E+01 0.176E+01 -.181E+01   0.424E+01 -.126E+01 0.167E+01   0.861E+00 -.950E+00 -.221E-01   -.336E-03 -.152E-02 -.661E-03
   -.249E+01 -.330E+01 -.194E+01   0.242E+01 0.356E+01 0.196E+01   0.607E+00 0.265E-01 0.208E+00   0.801E-03 -.303E-03 -.775E-03
   0.212E+01 -.377E+01 0.389E+00   -.158E+01 0.358E+01 -.275E+00   -.105E+01 0.365E+00 -.126E+00   0.119E-04 0.257E-03 -.101E-03
   -.126E+01 0.226E+01 0.200E+01   0.153E+01 -.164E+01 -.153E+01   -.307E+00 -.159E+01 -.946E+00   -.133E-02 -.132E-02 -.328E-03
   -.260E+01 -.451E+01 -.587E+01   0.264E+01 0.436E+01 0.513E+01   -.182E+00 0.390E+00 0.128E+01   0.173E-03 -.785E-03 0.948E-03
   0.227E+01 -.294E+01 -.317E+01   -.213E+01 0.244E+01 0.286E+01   -.441E+00 0.726E+00 0.536E+00   0.285E-03 -.103E-02 -.543E-03
   -.139E+01 -.550E+01 -.189E-01   0.127E+01 0.523E+01 -.731E-01   0.482E+00 0.120E+01 0.128E-01   0.751E-03 -.470E-03 -.148E-02
   -.444E+01 0.493E-01 -.369E+01   0.389E+01 0.251E+00 0.315E+01   0.120E+01 0.191E+00 0.745E+00   0.321E-03 -.195E-03 0.370E-03
 -----------------------------------------------------------------------------------------------
   -.120E+00 -.277E-01 0.285E-01   0.160E-12 0.977E-13 0.338E-13   0.126E+00 0.295E-01 -.490E-01   0.161E-02 0.116E-02 0.471E-03
 
 
 POSITION                                       TOTAL-FORCE (eV/Angst)
 -----------------------------------------------------------------------------------
     10.85542      0.06334      0.00296         0.949450     -0.407426     -0.052998
      2.82784      2.78100      0.02095        -0.317207     -0.471857      0.042435
      2.71788      0.05933      2.77575         0.214439     -0.112624     -0.230944
      0.05131      2.79281      2.74044         0.085065     -0.822946     -0.456473
      1.41574      1.39454      1.34880        -0.321114      0.205892     -0.129275
      4.12446      4.11169      1.41667         0.429192      0.140514     -0.145475
      3.98939      1.45202      4.17776         0.450690     -0.017168      0.071286
      1.47667      4.05295      3.99689        -0.465584      0.510905      1.308567
      0.08141      0.06041      5.49070        -0.158408      0.068027      0.617315
      2.69199      2.84522      5.59282         0.222170     -0.327886     -0.535561
      2.73286      0.08498      8.13604        -0.285011     -0.399014      0.512654
     10.83019      2.77183      8.32465        -0.293207     -0.089593     -0.126260
      1.34396      1.50123      6.93487        -0.452563     -0.427960     -0.406848
      4.14049      4.19242      6.82956        -0.500787      0.172938      0.151484
      4.09118      1.46390      9.42814         0.186294     -0.514902      0.978447
      1.41476      4.10015      9.58731        -0.238753      0.338409      0.036662
      0.04230      5.41774      0.09426         0.076374      0.058492      0.289370
      2.73961      8.11829      0.08036        -0.257110      0.572918     -0.306661
      2.82032      5.45243      2.79330         0.268266      0.356112     -0.245992
      0.13509      8.18703      2.83627        -0.432135      0.176875     -0.146221
      1.44533      6.78725      1.47982        -0.574834     -0.070327     -0.323933
      4.05195      9.50697      1.42439         0.512415      0.291276      0.123062
      4.23187      6.82635      4.08360        -0.653495      0.163904      0.084287
      1.46136      9.58315      4.19745        -0.120113     -0.212139     -0.159084
      0.09199      5.41450      5.41957         0.106614      0.415721      0.027320
      2.87286      8.18629      5.45743        -0.269690      0.013225      0.139066
      2.73593      5.50650      8.20581        -0.086046     -0.281713     -0.120241
      0.06414      8.14771      8.16781        -0.635889      0.014028      0.154449
      1.43671      6.85423      6.79739        -0.058713     -0.287944     -0.417686
      4.11550      9.61578      6.84361        -0.060527     -0.304927     -0.017793
      4.07268      6.81996      9.57741         0.087175      0.481258     -0.292792
      1.38424      9.52046      9.52944         0.027987      0.433082      0.327116
      5.39878      0.06419      0.05033         0.066608      0.268208      0.261338
      8.14500      2.75328      0.09391        -0.275441      0.338211      0.003225
      8.31645      0.06195      2.72892        -0.676248      0.126341      0.304103
      5.43716      2.83354      2.88440         0.088312     -0.797212     -0.587967
      6.82902      1.43101      1.47474        -0.686111     -0.324957      0.056176
      9.49031      4.09567      1.47260         0.571496      0.063220     -0.775733
      9.63832      1.41927      4.12343        -0.198349      0.033583      0.092473
      6.87519      4.17531      4.09333        -0.092267      0.113537      0.834547
      5.41113      0.03131      5.43108         0.759885      0.562676     -0.148930
      8.26544      2.81535      5.46405        -0.198512     -0.111724      0.011505
      8.05613      0.03896      8.22807         0.396398     -0.167685     -0.578968
      5.44565      2.80423      8.12925         0.359050     -0.129202     -0.039734
      6.81145      1.48093      6.77983         0.028267     -0.673749     -0.223467
      9.57445      4.18892      6.87363         0.340859     -0.564884     -0.250572
      9.38514      1.36452      9.64008         0.530081      0.229881     -0.669152
      6.81188      4.07769      9.51242        -0.012253      0.445928      0.442162
      5.42448      5.48440     10.87853         0.657534     -0.477138      0.170781
      8.25358      8.24808      0.01861        -0.045538     -0.403409      0.137914
      8.20706      5.50756      2.73552        -0.109002      0.329619      0.215268
      5.55894      8.11419      2.70084        -0.172816      1.081774     -0.062747
      6.87722      6.80606      1.32241         0.132454      0.120325     -0.344462
      9.64850      9.56581      1.43184        -0.026388     -0.535775     -0.079356
      9.55868      6.84260      4.13057         0.159950     -0.073243      0.070826
      6.86356      9.59541      4.06143        -0.286329     -0.052812     -0.070236
      5.47794      5.53280      5.50090         0.703041     -0.449308     -0.162362
      8.13400      8.19535      5.44577         0.541414      0.283111      0.228618
      8.19023      5.47788      8.19863        -0.504255      0.181226     -0.012673
      5.41581      8.28073      8.25916        -0.044516     -0.966669     -0.470935
      6.81310      6.87958      6.85392        -0.147796      0.237177      0.536742
      9.54190      9.54761      6.83352        -0.301245      0.225902      0.229677
      9.55234      6.74536      9.58478         0.360149      0.930845     -0.080285
      6.72754      9.54996      9.62388         0.646621      0.491047      0.212940
 -----------------------------------------------------------------------------------
    total drift:                                0.007602      0.002909     -0.020072


--------------------------------------------------------------------------------------------------------



  FREE ENERGIE OF THE ION-ELECTRON SYSTEM (eV)
  ---------------------------------------------------
  free  energy   TOTEN  =      -345.16599927 eV

  energy  without entropy=     -345.16599927  energy(sigma->0) =     -345.16599927
 


--------------------------------------------------------------------------------------------------------


    POTLOK:  cpu time      0.3570: real time      0.3579


--------------------------------------------------------------------------------------------------------


 writing wavefunctions
     LOOP+:  cpu time    233.7609: real time    241.0917
    4ORBIT:  cpu time      0.0000: real time      0.0000

 total amount of memory used by VASP MPI-rank0    37865. kBytes
=======================================================================

   base      :      30000. kBytes
   nonlr-proj:       1205. kBytes
   fftplans  :        841. kBytes
   grid      :       1174. kBytes
   one-center:          9. kBytes
   wavefun   :       4636. kBytes
 
  
  
 General timing and accounting informations for this job:
 ========================================================
  
                  Total CPU time used (sec):      277.904
                            User time (sec):      277.709
                          System time (sec):        0.195
                         Elapsed time (sec):      289.561
  
                   Maximum memory used (kb):      213220.
                   Average memory used (kb):          N/A
  
                          Minor page faults:        19317
                          Major page faults:         7757
                 Voluntary context switches:         4450
