 vasp.6.4.2 20Jul23 (build Jun 27 2024 19:57:08) complex                        
  
 executed on                 T2A5 date 2026.01.14  02:21:18
 running   28 mpi-ranks, with    1 threads/rank, on    1 nodes
 distrk:  each k-point on   28 cores,    1 groups
 distr:  one band on NCORE=  28 cores,    1 groups


--------------------------------------------------------------------------------------------------------


 INCAR:
   ISTART = 1
   ICHARG = 1
   LWAVE = .T.
   LCHARG = .T.
   ENCUT = 250
   PREC = Normal
   ADDGRID = .F.
   EDIFF = 1E-4
   LREAL = Auto
   ALGO = Fast
   NSW = 0
   IBRION = -1
   ISMEAR = 0
   SIGMA = 0.1
   NPAR = 1
   KPAR = 1
   SYMPREC = 1E-4

 POTCAR:    PAW_PBE Si 05Jan2001                  
 POTCAR:    PAW_PBE Si 05Jan2001                  
   SHA256 =  79d9987ad8750f624c4d6acb2a16d13abf6a777132adc04dc6c8399be72b42bb Si/POTCAR             
   COPYR  = (c) Copyright 05Jan2001 Georg Kresse                                                    
   COPYR  = This file is part of the software VASP. Any use, copying, and all other rights are regul
   COPYR  = If you do not have a valid VASP license, you may not use, copy or distribute this file. 
   VRHFIN =Si: s2p2                                                                                 
   LEXCH  = PE                                                                                      
   EATOM  =   103.0669 eV,    7.5752 Ry                                                             
                                                                                                    
   TITEL  = PAW_PBE Si 05Jan2001                                                                    
   LULTRA =        F    use ultrasoft PP ?                                                          
   IUNSCR =        1    unscreen: 0-lin 1-nonlin 2-no                                               
   RPACOR =    1.500    partial core radius                                                         
   POMASS =   28.085; ZVAL   =    4.000    mass and valenz                                          
   RCORE  =    1.900    outmost cutoff radius                                                       
   RWIGS  =    2.480; RWIGS  =    1.312    wigner-seitz radius (au A)                               
   ENMAX  =  245.345; ENMIN  =  184.009 eV                                                          
   ICORE  =        2    local potential                                                             
   LCOR   =        T    correct aug charges                                                         
   LPAW   =        T    paw PP                                                                      
   EAUG   =  322.069                                                                                
   DEXC   =    0.000                                                                                
   RMAX   =    1.950    core radius for proj-oper                                                   
   RAUG   =    1.300    factor for augmentation sphere                                              
   RDEP   =    1.993    radius for radial grids                                                     
   RDEPT  =    1.837    core radius for aug-charge                                                  
                                                                                                    
   Atomic configuration                                                                             
    6 entries                                                                                       
     n  l   j            E        occ.                                                              
     1  0  0.50     -1785.8828   2.0000                                                             
     2  0  0.50      -139.4969   2.0000                                                             
     2  1  1.50       -95.5546   6.0000                                                             
     3  0  0.50       -10.8127   2.0000                                                             
     3  1  0.50        -4.0811   2.0000                                                             
     3  2  1.50        -4.0817   0.0000                                                             
   Description                                                                                      
     l       E           TYP  RCUT    TYP  RCUT                                                     
     0    -10.8127223     23  1.900                                                                 
     0     -7.6451159     23  1.900                                                                 
     1     -4.0811372     23  1.900                                                                 
     1      2.4879257     23  1.900                                                                 
     2     -4.0817478      7  1.900                                                                 
  local pseudopotential read in
  partial core-charges read in
  partial kinetic energy density read in
  atomic valenz-charges read in
  non local Contribution for L=           0  read in
    real space projection operators read in
  non local Contribution for L=           0  read in
    real space projection operators read in
  non local Contribution for L=           1  read in
    real space projection operators read in
  non local Contribution for L=           1  read in
    real space projection operators read in
    PAW grid and wavefunctions read in
 
   number of l-projection  operators is LMAX  =           4
   number of lm-projection operators is LMMAX =           8
 
 Optimization of the real space projectors (new method)

 maximal supplied QI-value         = 19.84
 optimisation between [QCUT,QGAM] = [  7.94, 16.07] = [ 17.64, 72.34] Ry 
 Optimized for a Real-space Cutoff    1.55 Angstroem

   l    n(q)    QCUT    max X(q) W(low)/X(q) W(high)/X(q)  e(spline) 
   0      7     7.937   159.560    0.97E-04    0.31E-03    0.13E-06
   0      7     7.937   115.863    0.95E-04    0.31E-03    0.13E-06
   1      7     7.937    88.339    0.40E-03    0.66E-03    0.12E-06
   1      7     7.937    48.592    0.39E-03    0.64E-03    0.12E-06
  PAW_PBE Si 05Jan2001                  :
 energy of atom  1       EATOM= -103.0669
 kinetic energy error for atom=    0.0052 (will be added to EATOM!!)
 
 
 POSCAR: Si
  positions in cartesian coordinates
  No initial velocities read in
 exchange correlation table for  LEXCH =        8
   RHO(1)=    0.500       N(1)  =     2000
   RHO(2)=  100.500       N(2)  =     4000
 


--------------------------------------------------------------------------------------------------------


 ion  position               nearest neighbor table
   1  0.998  1.000  0.009-  54 2.30  47 2.37  32 2.39   5 2.40
   2  0.246  0.248  0.001-   5 2.36  15 2.36  16 2.40   6 2.41
   3  0.254  0.996  0.253-  24 2.34  22 2.35   7 2.37   5 2.40
   4  0.996  0.252  0.252-  39 2.33   5 2.36  38 2.38   8 2.39
   5  0.126  0.127  0.133-   2 2.36   4 2.36   3 2.40   1 2.40
   6  0.371  0.382  0.123-  49 2.36  19 2.41   2 2.41  36 2.42
   7  0.386  0.121  0.370-  10 2.34   3 2.37  36 2.38  41 2.42
   8  0.119  0.376  0.382-  10 2.36   4 2.39  25 2.40  19 2.44
   9  0.996  0.006  0.499-  39 2.34  13 2.38  62 2.39  24 2.45
  10  0.253  0.242  0.486-   7 2.34   8 2.36  13 2.40  14 2.42
  11  0.265  0.001  0.755-  30 2.27  13 2.32  15 2.33  32 2.41
  12  0.015  0.252  0.738-  46 2.37  47 2.38  16 2.41  13 2.44
  13  0.142  0.111  0.622-  11 2.32   9 2.38  10 2.40  12 2.44
  14  0.371  0.366  0.627-  27 2.38  57 2.40  10 2.42  44 2.44
  15  0.380  0.124  0.885-  11 2.33   2 2.36  44 2.37  33 2.38
  16  0.126  0.383  0.877-  27 2.30  17 2.36   2 2.40  12 2.41
  17  0.002  0.509  0.001-  16 2.36  21 2.36  38 2.37  63 2.40
  18  0.254  0.756  0.998-  31 2.31  22 2.34  32 2.37  21 2.38
  19  0.247  0.507  0.254-  23 2.32   6 2.41  21 2.42   8 2.44
  20  0.986  0.761  0.245-  54 2.28  24 2.32  21 2.40  55 2.41
  21  0.122  0.637  0.126-  17 2.36  18 2.38  20 2.40  19 2.42
  22  0.377  0.876  0.124-  18 2.34  52 2.34   3 2.35  33 2.47
  23  0.368  0.628  0.379-  19 2.32  52 2.37  26 2.37  57 2.38
  24  0.118  0.875  0.365-  20 2.32   3 2.34  26 2.39   9 2.45
  25  0.994  0.507  0.506-  29 2.39  46 2.39  55 2.40   8 2.40
  26  0.244  0.758  0.501-  30 2.34  23 2.37  24 2.39  29 2.39
  27  0.256  0.497  0.757-  16 2.30  31 2.38  14 2.38  29 2.45
  28  0.998  0.760  0.752-  63 2.26  62 2.32  32 2.37  29 2.39
  29  0.125  0.628  0.631-  25 2.39  26 2.39  28 2.39  27 2.45
  30  0.370  0.873  0.630-  11 2.27  26 2.34  60 2.36  41 2.41
  31  0.375  0.632  0.877-  18 2.31  27 2.38  60 2.38  49 2.43
  32  0.125  0.882  0.877-  28 2.37  18 2.37   1 2.39  11 2.41
  33  0.518  0.997  0.996-  64 2.34  15 2.38  37 2.40  22 2.47
  34  0.762  0.250  0.995-  47 2.35  37 2.36  38 2.36  48 2.42
  35  0.745  0.001  0.254-  37 2.30  39 2.32  54 2.38  56 2.43
  36  0.504  0.249  0.240-  37 2.36   7 2.38   6 2.42  40 2.43
  37  0.639  0.127  0.124-  35 2.30  36 2.36  34 2.36  33 2.40
  38  0.878  0.380  0.122-  34 2.36  17 2.37   4 2.38  51 2.39
  39  0.873  0.125  0.370-  35 2.32   4 2.33   9 2.34  42 2.40
  40  0.620  0.375  0.382-  57 2.34  42 2.36  51 2.38  36 2.43
  41  0.506  0.000  0.511-  45 2.36  56 2.41  30 2.41   7 2.42
  42  0.745  0.245  0.501-  46 2.36  45 2.36  40 2.36  39 2.40
  43  0.764  0.003  0.762-  64 2.24  47 2.33  45 2.41  62 2.42
  44  0.506  0.246  0.758-  45 2.31  48 2.36  15 2.37  14 2.44
  45  0.629  0.124  0.637-  44 2.31  41 2.36  42 2.36  43 2.41
  46  0.872  0.369  0.624-  59 2.32  42 2.36  12 2.37  25 2.39
  47  0.893  0.132  0.872-  43 2.33  34 2.35   1 2.37  12 2.38
  48  0.628  0.380  0.876-  59 2.35  44 2.36  49 2.39  34 2.42
  49  0.504  0.505  0.006-  53 2.34   6 2.36  48 2.39  31 2.43
  50  0.742  0.754  0.002-  64 2.30  54 2.35  53 2.40  63 2.51
  51  0.750  0.496  0.256-  55 2.36  40 2.38  53 2.39  38 2.39
  52  0.494  0.756  0.257-  56 2.31  22 2.34  23 2.37  53 2.40
  53  0.623  0.627  0.136-  49 2.34  51 2.39  50 2.40  52 2.40
  54  0.867  0.880  0.122-  20 2.28   1 2.30  50 2.35  35 2.38
  55  0.867  0.631  0.377-  58 2.28  51 2.36  25 2.40  20 2.41
  56  0.623  0.866  0.382-  52 2.31  58 2.33  41 2.41  35 2.43
  57  0.492  0.498  0.501-  40 2.34  23 2.38  14 2.40  61 2.47
  58  0.752  0.749  0.504-  55 2.28  62 2.29  56 2.33  61 2.39
  59  0.759  0.496  0.751-  61 2.32  46 2.32  48 2.35  63 2.38
  60  0.504  0.753  0.750-  30 2.36  31 2.38  64 2.39  61 2.42
  61  0.633  0.617  0.631-  59 2.32  58 2.39  60 2.42  57 2.47
  62  0.874  0.873  0.621-  58 2.29  28 2.32   9 2.39  43 2.42
  63  0.882  0.634  0.866-  28 2.26  59 2.38  17 2.40  50 2.51
  64  0.639  0.878  0.867-  43 2.24  50 2.30  33 2.34  60 2.39
 
  LATTYP: Found a simple monoclinic cell.
 ALAT       =    15.4733371524
 B/A-ratio  =     0.7068320539
 C/A-ratio  =     1.5810513960
 COS(beta)  =    -0.9487475831
  
  Lattice vectors:
  
 A1 = (  -0.0018361700,  10.9451471100,  10.9374546400)
 A2 = ( -10.9370506800,   0.0000000000,   0.0000000000)
 A3 = (  -0.0005065700, -21.8830138600, -10.9374546400)


Analysis of symmetry for initial positions (statically):
=====================================================================
 Subroutine PRICEL returns:
 Original cell was already a primitive cell.
 

 Routine SETGRP: Setting up the symmetry group for a 
 simple monoclinic supercell.


 Subroutine GETGRP returns: Found  1 space group operations
 (whereof  1 operations were pure point group operations)
 out of a pool of  4 trial point group operations.


The static configuration has the point symmetry C_1 .


Analysis of symmetry for dynamics (positions and initial velocities):
=====================================================================
 Subroutine PRICEL returns:
 Original cell was already a primitive cell.
 

 Routine SETGRP: Setting up the symmetry group for a 
 simple monoclinic supercell.


 Subroutine GETGRP returns: Found  1 space group operations
 (whereof  1 operations were pure point group operations)
 out of a pool of  4 trial point group operations.


The dynamic configuration has the point symmetry C_1 .


 Subroutine INISYM returns: Found  1 space group operations
 (whereof  1 operations are pure point group operations),
 and found     1 'primitive' translations


----------------------------------------------------------------------------------------

                                     Primitive cell                                     

  volume of cell :    1308.4259

  direct lattice vectors                    reciprocal lattice vectors
    10.937050680  0.000000000  0.000000000     0.091432328 -0.000019584  0.000034947
     0.002342740 10.937866750  0.000000000     0.000000000  0.091425506 -0.000060856
    -0.004178910  0.007280360 10.937454640     0.000000000  0.000000000  0.091428951

  length of vectors
    10.937050680 10.937867001 10.937457861     0.091432336  0.091425526  0.091428951

  position of ions in fractional coordinates (direct lattice)
     0.997920482  0.999878608  0.008527227
     0.246428840  0.247603475  0.000730841
     0.253787578  0.995848092  0.253320669
     0.996082138  0.251716477  0.251799565
     0.126020927  0.127334367  0.132929374
     0.371459419  0.381983457  0.122761989
     0.386117400  0.121156551  0.369836702
     0.118971299  0.376346400  0.381831957
     0.996077227  0.006396938  0.499088163
     0.253208504  0.242496389  0.486014195
     0.265122938  0.000908641  0.754685344
     0.014815507  0.252162574  0.738449286
     0.141505070  0.110760770  0.622098484
     0.370633780  0.365903451  0.627197282
     0.380022015  0.123878365  0.885124622
     0.125925475  0.382787218  0.876615731
     0.002076310  0.508518238  0.000548180
     0.253521347  0.755733417  0.998254599
     0.246679767  0.506772519  0.254060758
     0.985669138  0.760555694  0.245078124
     0.122187354  0.637355582  0.125657585
     0.376918995  0.876393122  0.124282716
     0.367783023  0.628432854  0.379368563
     0.118093172  0.874513353  0.365265829
     0.994131862  0.506608795  0.506004837
     0.243805225  0.758402925  0.501098974
     0.255539776  0.496695244  0.756963945
     0.998424177  0.759590442  0.751579249
     0.125191073  0.628456378  0.630834894
     0.370268124  0.872797256  0.629673552
     0.374898743  0.632387122  0.877308464
     0.125475199  0.882126014  0.876593746
     0.518233552  0.997146442  0.995923961
     0.761914975  0.249629835  0.995035650
     0.745009120  0.001330571  0.254490159
     0.504177661  0.248902783  0.239834861
     0.638955360  0.127417979  0.124000085
     0.877644149  0.380323873  0.122425343
     0.872847377  0.124596214  0.370019507
     0.619933738  0.375089904  0.381977555
     0.506070210  0.000340399  0.511456240
     0.745143750  0.245258475  0.501330395
     0.764104680  0.003102631  0.762418930
     0.506380833  0.245940044  0.757978090
     0.629384912  0.124095746  0.637310448
     0.872000159  0.368802867  0.624314310
     0.893145848  0.131889709  0.872473432
     0.627771793  0.380054944  0.876021985
     0.504415053  0.505023613  0.006076286
     0.741590701  0.753842651  0.002169133
     0.749861169  0.496159244  0.256293576
     0.493568106  0.755896855  0.257381679
     0.623029286  0.626836984  0.135789452
     0.867479966  0.880469465  0.121885922
     0.867268875  0.630771771  0.377491621
     0.623482994  0.866233935  0.381556680
     0.491901338  0.498057790  0.501152095
     0.751845005  0.749364346  0.504418628
     0.758599969  0.495820480  0.751460616
     0.503784333  0.752962201  0.749570267
     0.632549716  0.617480533  0.631259591
     0.874450842  0.872891708  0.621329918
     0.881607124  0.633786362  0.865942845
     0.639407997  0.877830776  0.866746904

  ion indices of the primitive-cell ions
   primitive index   ion index
                 1           1
                 2           2
                 3           3
                 4           4
                 5           5
                 6           6
                 7           7
                 8           8
                 9           9
                10          10
                11          11
                12          12
                13          13
                14          14
                15          15
                16          16
                17          17
                18          18
                19          19
                20          20
                21          21
                22          22
                23          23
                24          24
                25          25
                26          26
                27          27
                28          28
                29          29
                30          30
                31          31
                32          32
                33          33
                34          34
                35          35
                36          36
                37          37
                38          38
                39          39
                40          40
                41          41
                42          42
                43          43
                44          44
                45          45
                46          46
                47          47
                48          48
                49          49
                50          50
                51          51
                52          52
                53          53
                54          54
                55          55
                56          56
                57          57
                58          58
                59          59
                60          60
                61          61
                62          62
                63          63
                64          64

----------------------------------------------------------------------------------------

 
 
 KPOINTS: K-Points                                

Automatic generation of k-mesh.
 Grid dimensions read from file:
 generate k-points for:    2    2    2

 Generating k-lattice:

  Cartesian coordinates                     Fractional coordinates (reciprocal lattice)
     0.045716164 -0.000009792  0.000017473     0.500000000  0.000000000 -0.000000000
     0.000000000  0.045712753 -0.000030428     0.000000000  0.500000000  0.000000000
     0.000000000  0.000000000  0.045714475     0.000000000  0.000000000  0.500000000

  Length of vectors
     0.045716168  0.045712763  0.045714475

  Shift w.r.t. Gamma in fractional coordinates (k-lattice)
     0.500000000  0.500000000  0.500000000

 
 Subroutine IBZKPT returns following result:
 ===========================================
 
 Found      4 irreducible k-points:
 
 Following reciprocal coordinates:
            Coordinates               Weight
  0.250000  0.250000  0.250000      2.000000
  0.250000 -0.250000 -0.250000      2.000000
  0.250000 -0.250000  0.250000      2.000000
  0.250000  0.250000 -0.250000      2.000000
 
 Following cartesian coordinates:
            Coordinates               Weight
  0.022858  0.022851  0.022851      2.000000
  0.022858 -0.022861 -0.022833      2.000000
  0.022858 -0.022861  0.022881      2.000000
  0.022858  0.022851 -0.022864      2.000000
 


--------------------------------------------------------------------------------------------------------




 Dimension of arrays:
   k-points           NKPTS =      4   k-points in BZ     NKDIM =      4   number of bands    NBANDS=    161
   number of dos      NEDOS =    301   number of ions     NIONS =     64
   non local maximal  LDIM  =      4   non local SUM 2l+1 LMDIM =      8
   total plane-waves  NPLWV =  74088
   max r-space proj   IRMAX =    935   max aug-charges    IRDMAX=   2092
   dimension x,y,z NGX =    42 NGY =   42 NGZ =   42
   dimension x,y,z NGXF=    84 NGYF=   84 NGZF=   84
   support grid    NGXF=    84 NGYF=   84 NGZF=   84
   ions per type =              64
   NGX,Y,Z   is equivalent  to a cutoff of   6.38,  6.38,  6.38 a.u.
   NGXF,Y,Z  is equivalent  to a cutoff of  12.77, 12.77, 12.77 a.u.

 SYSTEM =  unknown system                          
 POSCAR =  Si                                      

 Startparameter for this run:
   NWRITE =      2    write-flag & timer
   PREC   = normal    normal or accurate (medium, high low for compatibility)
   ISTART =      1    job   : 0-new  1-cont  2-samecut
   ICHARG =      1    charge: 1-file 2-atom 10-const
   ISPIN  =      1    spin polarized calculation?
   LNONCOLLINEAR =      F non collinear calculations
   LSORBIT =      F    spin-orbit coupling
   INIWAV =      1    electr: 0-lowe 1-rand  2-diag
   LASPH  =      F    aspherical Exc in radial PAW
 Electronic Relaxation 1
   ENCUT  =  250.0 eV  18.37 Ry    4.29 a.u.  14.10 14.10 14.10*2*pi/ulx,y,z
   ENINI  =  250.0     initial cutoff
   ENAUG  =  322.1 eV  augmentation charge cutoff
   NELM   =     60;   NELMIN=  2; NELMDL=  0     # of ELM steps 
   EDIFF  = 0.1E-03   stopping-criterion for ELM
   LREAL  =      T    real-space projection
   NLSPLINE    = F    spline interpolate recip. space projectors
   LCOMPAT=      F    compatible to vasp.4.4
   GGA_COMPAT  = T    GGA compatible to vasp.4.4-vasp.4.6
   LMAXPAW     = -100 max onsite density
   LMAXMIX     =    2 max onsite mixed and CHGCAR
   VOSKOWN=      0    Vosko Wilk Nusair interpolation
   ROPT   =   -0.00050
 Ionic relaxation
   EDIFFG = 0.1E-02   stopping-criterion for IOM
   NSW    =      0    number of steps for IOM
   NBLOCK =      1;   KBLOCK =      1    inner block; outer block 
   IBRION =     -1    ionic relax: 0-MD 1-quasi-New 2-CG
   NFREE  =      0    steps in history (QN), initial steepest desc. (CG)
   ISIF   =      2    stress and relaxation
   IWAVPR =     10    prediction:  0-non 1-charg 2-wave 3-comb
   ISYM   =      2    0-nonsym 1-usesym 2-fastsym
   LCORR  =      T    Harris-Foulkes like correction to forces

   POTIM  = 0.5000    time-step for ionic-motion
   TEIN   =    0.0    initial temperature
   TEBEG  =    0.0;   TEEND  =   0.0 temperature during run
   SMASS  =  -3.00    Nose mass-parameter (am)
   estimated Nose-frequenzy (Omega)   =  0.10E-29 period in steps = 0.13E+47 mass=  -0.273E-26a.u.
   SCALEE = 1.0000    scale energy and forces
   NPACO  =    256;   APACO  = 10.0  distance and # of slots for P.C.
   PSTRESS=    0.0 pullay stress

  Mass of Ions in am
   POMASS =  28.09
  Ionic Valenz
   ZVAL   =   4.00
  Atomic Wigner-Seitz radii
   RWIGS  =  -1.00
  virtual crystal weights 
   VCA    =   1.00
   NELECT =     256.0000    total number of electrons
   NUPDOWN=      -1.0000    fix difference up-down

 DOS related values:
   EMIN   =  10.00;   EMAX   =-10.00  energy-range for DOS
   EFERMI =   0.00;   METHOD = LEGACY      
   ISMEAR =     0;   SIGMA  =   0.10  broadening in eV -4-tet -1-fermi 0-gaus

 Electronic relaxation 2 (details)
   IALGO  =     68    algorithm
   LDIAG  =      T    sub-space diagonalisation (order eigenvalues)
   LSUBROT=      F    optimize rotation matrix (better conditioning)
   TURBO    =      0    0=normal 1=particle mesh
   IRESTART =      0    0=no restart 2=restart with 2 vectors
   NREBOOT  =      0    no. of reboots
   NMIN     =      0    reboot dimension
   EREF     =   0.00    reference energy to select bands
   IMIX   =      4    mixing-type and parameters
     AMIX     =   0.40;   BMIX     =  1.00
     AMIX_MAG =   1.60;   BMIX_MAG =  1.00
     AMIN     =   0.10
     WC   =   100.;   INIMIX=   1;  MIXPRE=   1;  MAXMIX= -45

 Intra band minimization:
   WEIMIN = 0.0000     energy-eigenvalue tresh-hold
   EBREAK =  0.16E-06  absolut break condition
   DEPER  =   0.30     relativ break condition  

   TIME   =   0.40     timestep for ELM

  volume/ion in A,a.u.               =      20.44       137.96
  Fermi-wavevector in a.u.,A,eV,Ry     =   0.950397  1.795990 12.289526  0.903255
  Thomas-Fermi vector in A             =   2.078770
 
 Write flags
   LWAVE        =      T    write WAVECAR
   LDOWNSAMPLE  =      F    k-point downsampling of WAVECAR
   LCHARG       =      T    write CHGCAR
   LVTOT        =      F    write LOCPOT, total local potential
   LVHAR        =      F    write LOCPOT, Hartree potential only
   LELF         =      F    write electronic localiz. function (ELF)
   LORBIT       =      0    0 simple, 1 ext, 2 COOP (PROOUT), +10 PAW based schemes


 Dipole corrections
   LMONO  =      F    monopole corrections only (constant potential shift)
   LDIPOL =      F    correct potential (dipole corrections)
   IDIPOL =      0    1-x, 2-y, 3-z, 4-all directions 
   EPSILON=  1.0000000 bulk dielectric constant

 Exchange correlation treatment:
   GGA     =    --    GGA type
   LEXCH   =     8    internal setting for exchange type
   LIBXC   =     F    Libxc                    
   VOSKOWN =     0    Vosko Wilk Nusair interpolation
   LHFCALC =     F    Hartree Fock is set to
   LHFONE  =     F    Hartree Fock one center treatment
   AEXX    =    0.0000 exact exchange contribution

 Linear response parameters
   LEPSILON=     F    determine dielectric tensor
   LRPA    =     F    only Hartree local field effects (RPA)
   LNABLA  =     F    use nabla operator in PAW spheres
   LVEL    =     F    velocity operator in full k-point grid
   CSHIFT  =0.1000    complex shift for real part using Kramers Kronig
   OMEGAMAX=  -1.0    maximum frequency
   DEG_THRESHOLD= 0.2000000E-02 threshold for treating states as degnerate
   RTIME   =   -0.100 relaxation time in fs
  (WPLASMAI=    0.000 imaginary part of plasma frequency in eV, 0.658/RTIME)
   DFIELD  = 0.0000000 0.0000000 0.0000000 field for delta impulse in time
 
  Optional k-point grid parameters
   LKPOINTS_OPT  =     F    use optional k-point grid
   KPOINTS_OPT_MODE=     1    mode for optional k-point grid
 
 Orbital magnetization related:
   ORBITALMAG=     F  switch on orbital magnetization
   LCHIMAG   =     F  perturbation theory with respect to B field
   DQ        =  0.001000  dq finite difference perturbation B field
   LLRAUG    =     F  two centre corrections for induced B field
   LBONE     =     F  B-component reconstruction in AE one-centre
   LVGVCALC  =     T  calculate vGv susceptibility
   LVGVAPPL  =     F  apply vGv susceptibility instead of pGv for G=0

 Random number generation:
   RANDOM_GENERATOR = DEFAULT
   PCG_SEED         = not used


--------------------------------------------------------------------------------------------------------


 Static calculation
 charge density and potential will be updated during run
 non-spin polarized calculation
 RMM-DIIS sequential band-by-band and
  variant of blocked Davidson during initial phase
 perform sub-space diagonalisation
    before iterative eigenvector-optimisation
 modified Broyden-mixing scheme, WC =      100.0
 initial mixing is a Kerker type mixing with AMIX =  0.4000 and BMIX =      1.0000
 Hartree-type preconditioning will be used
 using additional bands           33
 real space projection scheme for non local part
 use partial core corrections
 calculate Harris-corrections to forces 
   (improved forces if not selfconsistent)
 use gradient corrections 
 use of overlap-Matrix (Vanderbilt PP)
 Gauss-broadening in eV      SIGMA  =   0.10


--------------------------------------------------------------------------------------------------------


  energy-cutoff  :      250.00
  volume of cell :     1308.43
      direct lattice vectors                 reciprocal lattice vectors
    10.937050680  0.000000000  0.000000000     0.091432328 -0.000019584  0.000034947
     0.002342740 10.937866750  0.000000000     0.000000000  0.091425506 -0.000060856
    -0.004178910  0.007280360 10.937454640     0.000000000  0.000000000  0.091428951

  length of vectors
    10.937050680 10.937867001 10.937457861     0.091432336  0.091425526  0.091428951


 
 old parameters found on file WAVECAR:
  energy-cutoff  :      250.00
  volume of cell :     1306.54
      direct lattice vectors                 reciprocal lattice vectors
    10.931787420  0.000000000  0.000000000     0.091476349 -0.000016074  0.000038756
     0.001921100 10.932687320  0.000000000     0.000000000  0.091468819 -0.000062631
    -0.004630330  0.007485490 10.932091060     0.000000000  0.000000000  0.091473808

  length of vectors

 
 k-points in units of 2pi/SCALE and weight: K-Points                                
   0.02285808  0.02285148  0.02285076       0.250
   0.02285808 -0.02286127 -0.02283329       0.250
   0.02285808 -0.02286127  0.02288119       0.250
   0.02285808  0.02285148 -0.02286371       0.250
 
 k-points in reciprocal lattice and weights: K-Points                                
   0.25000000  0.25000000  0.25000000       0.250
   0.25000000 -0.25000000 -0.25000000       0.250
   0.25000000 -0.25000000  0.25000000       0.250
   0.25000000  0.25000000 -0.25000000       0.250
 
 position of ions in fractional coordinates (direct lattice) 
   0.99792048  0.99987861  0.00852723
   0.24642884  0.24760348  0.00073084
   0.25378758  0.99584809  0.25332067
   0.99608214  0.25171648  0.25179956
   0.12602093  0.12733437  0.13292937
   0.37145942  0.38198346  0.12276199
   0.38611740  0.12115655  0.36983670
   0.11897130  0.37634640  0.38183196
   0.99607723  0.00639694  0.49908816
   0.25320850  0.24249639  0.48601419
   0.26512294  0.00090864  0.75468534
   0.01481551  0.25216257  0.73844929
   0.14150507  0.11076077  0.62209848
   0.37063378  0.36590345  0.62719728
   0.38002202  0.12387836  0.88512462
   0.12592547  0.38278722  0.87661573
   0.00207631  0.50851824  0.00054818
   0.25352135  0.75573342  0.99825460
   0.24667977  0.50677252  0.25406076
   0.98566914  0.76055569  0.24507812
   0.12218735  0.63735558  0.12565759
   0.37691900  0.87639312  0.12428272
   0.36778302  0.62843285  0.37936856
   0.11809317  0.87451335  0.36526583
   0.99413186  0.50660879  0.50600484
   0.24380522  0.75840293  0.50109897
   0.25553978  0.49669524  0.75696394
   0.99842418  0.75959044  0.75157925
   0.12519107  0.62845638  0.63083489
   0.37026812  0.87279726  0.62967355
   0.37489874  0.63238712  0.87730846
   0.12547520  0.88212601  0.87659375
   0.51823355  0.99714644  0.99592396
   0.76191498  0.24962984  0.99503565
   0.74500912  0.00133057  0.25449016
   0.50417766  0.24890278  0.23983486
   0.63895536  0.12741798  0.12400009
   0.87764415  0.38032387  0.12242534
   0.87284738  0.12459621  0.37001951
   0.61993374  0.37508990  0.38197755
   0.50607021  0.00034040  0.51145624
   0.74514375  0.24525847  0.50133040
   0.76410468  0.00310263  0.76241893
   0.50638083  0.24594004  0.75797809
   0.62938491  0.12409575  0.63731045
   0.87200016  0.36880287  0.62431431
   0.89314585  0.13188971  0.87247343
   0.62777179  0.38005494  0.87602199
   0.50441505  0.50502361  0.00607629
   0.74159070  0.75384265  0.00216913
   0.74986117  0.49615924  0.25629358
   0.49356811  0.75589686  0.25738168
   0.62302929  0.62683698  0.13578945
   0.86747997  0.88046947  0.12188592
   0.86726888  0.63077177  0.37749162
   0.62348299  0.86623393  0.38155668
   0.49190134  0.49805779  0.50115210
   0.75184501  0.74936435  0.50441863
   0.75859997  0.49582048  0.75146062
   0.50378433  0.75296220  0.74957027
   0.63254972  0.61748053  0.63125959
   0.87445084  0.87289171  0.62132992
   0.88160712  0.63378636  0.86594285
   0.63940800  0.87783078  0.86674690
 
 position of ions in cartesian coordinates  (Angst):
  10.91661371 10.93660106  0.09326616
   2.69578173  2.70825914  0.00799354
   2.77696201 10.89429800  2.77068333
  10.89373828  2.75507448  2.75404632
   1.37804008  1.39373411  1.45390900
   4.06305237  4.17897791  1.34270369
   4.22172390  1.32788675  4.04507215
   1.30048117  4.11920665  4.17626971
  10.89207645  0.07360240  5.45875414
   2.76789134  2.65593155  5.31575821
   2.89651138  0.01543297  8.25433672
   0.15954279  2.76349681  8.07675557
   1.54530791  1.21601564  6.80417395
   4.05187665  4.00676941  6.85994182
   4.15291140  1.36140907  9.68101040
   1.37448677  4.19325766  9.58794479
   0.02389774  5.56210872  0.00599569
   2.77037469  8.27337907 10.91836440
   2.69807465  5.54485994  2.77877802
  10.78107094  8.32064109  2.68053086
   1.33733733  6.97222526  1.37437414
   4.12391595  9.58677601  1.35933657
   4.02234847  6.87647676  4.14932645
   1.29211335  9.56796979  3.99507844
  10.87194286  5.54490339  5.53440495
   2.66619279  8.29895832  5.48074730
   2.79285182  5.43829736  8.27925881
  10.91845456  8.31377081  8.22036394
   1.36805722  6.87856483  6.89972804
   4.04905462  9.55112434  6.88702591
   4.09810188  6.92335320  9.59552153
   1.37073200  9.65495872  9.58770433
   5.66612080 10.91390560 10.89287315
   8.32952935  2.73766209 10.88315729
   8.14714213  0.01640639  2.78347457
   5.51379750  2.72421156  2.62318291
   6.98806748  1.39458364  1.35624531
   9.59921793  4.16082314  1.33902164
   9.54512162  1.36551066  4.04707157
   6.77952920  4.10546432  4.17786218
   5.53277900  0.00744682  5.59402943
   8.14815452  2.68625438  5.48327846
   8.35387280  0.03948685  8.33892246
   5.53572149  2.69557778  8.29035098
   6.88124214  1.36198258  6.97055412
   9.53536499  4.03846185  6.82840945
   9.76504440  1.44894398  9.54263859
   6.86320147  4.16336809  9.58145073
   5.51797075  5.52392522  0.06645910
   8.11257207  8.24544626  0.02372479
   8.20136095  5.42878961  2.80319936
   5.39887468  8.26977291  2.81510044
   6.81500394  6.85724800  1.48519097
   9.48922571  9.63134506  1.33312174
   9.48526387  6.90204586  4.12879748
   6.81949997  9.47752922  4.17325888
   5.37902241  5.45133831  5.48132831
   8.22261457  8.20011971  5.51705586
   8.29486760  5.42868925  8.21906640
   5.50854639  8.24125736  8.19839080
   6.91703692  6.75851559  6.90437314
   9.56336165  9.55209670  6.79576779
   9.64004789  6.93857515  9.47121059
   6.99167214  9.60790629  9.48000495
 


--------------------------------------------------------------------------------------------------------


 k-point   1 :   0.2500 0.2500 0.2500  plane waves:   11761
 k-point   2 :   0.2500-0.2500-0.2500  plane waves:   11762
 k-point   3 :   0.2500-0.2500 0.2500  plane waves:   11759
 k-point   4 :   0.2500 0.2500-0.2500  plane waves:   11761

 maximum and minimum number of plane-waves per node :       439      402

 maximum number of plane-waves:     11762
 maximum index in each direction: 
   IXMAX=   13   IYMAX=   14   IZMAX=   14
   IXMIN=  -14   IYMIN=  -14   IZMIN=  -14


 real space projection operators:
  total allocation   :       3436.56 KBytes
  max/ min on nodes  :        171.25         74.12


 parallel 3D FFT for wavefunctions:
    minimum data exchange during FFTs selected (reduces bandwidth)
 parallel 3D FFT for charge:
    minimum data exchange during FFTs selected (reduces bandwidth)


 total amount of memory used by VASP MPI-rank0    37805. kBytes
=======================================================================

   base      :      30000. kBytes
   nonlr-proj:       1186. kBytes
   fftplans  :        841. kBytes
   grid      :       1174. kBytes
   one-center:          9. kBytes
   wavefun   :       4595. kBytes
 
     INWAV:  cpu time     19.1456: real time     19.1961
 Broyden mixing: mesh for mixing (old mesh)
   NGX = 29   NGY = 29   NGZ = 29
  (NGX  = 84   NGY  = 84   NGZ  = 84)
  gives a total of  24389 points

 initial charge density was supplied:
 number of electron     255.9999988 magnetization 
 keeping initial charge density in first step


--------------------------------------------------------------------------------------------------------


 Maximum index for non-local projection operator          112
 Maximum index for augmentation-charges          183 (set IRDMAX)


--------------------------------------------------------------------------------------------------------


 First call to EWALD:  gamma=   0.162
 Maximum number of real-space cells 3x 3x 3
 Maximum number of reciprocal cells 3x 3x 3

    FEWALD:  cpu time      0.1126: real time      0.1129


--------------------------------------- Ionic step        1  -------------------------------------------




--------------------------------------- Iteration      1(   1)  ---------------------------------------


    POTLOK:  cpu time      0.5794: real time      0.6971
    SETDIJ:  cpu time      0.0420: real time      0.0421
     EDDAV:  cpu time     43.6549: real time     43.7718
       DOS:  cpu time      0.0134: real time      0.0134
    CHARGE:  cpu time      0.9233: real time      0.9258
    MIXING:  cpu time      0.1702: real time      0.1708
    --------------------------------------------
      LOOP:  cpu time     45.3831: real time     45.6210

 eigenvalue-minimisations  :  1508
 total energy-change (2. order) :-0.3335768E+03  (-0.6773541E+02)
 number of electron     255.9999983 magnetization 
 augmentation part      -14.6039550 magnetization 

 Broyden mixing:
  rms(total) = 0.49506E+00    rms(broyden)= 0.49506E+00
  rms(prec ) = 0.49749E+00
  weight for this iteration     100.00

 Free energy of the ion-electron system (eV)
  ---------------------------------------------------
  alpha Z        PSCENC =       105.38173264
  Ewald energy   TEWEN  =     -7259.79303903
  -Hartree energ DENC   =      -486.26973955
  -exchange      EXHF   =         0.00000000
  -V(xc)+E(xc)   XCENC  =      -577.98793615
  PAW double counting   =     30779.79809145   -29660.59290316
  entropy T*S    EENTRO =        -0.00000000
  eigenvalues    EBANDS =       169.93504313
  atomic energy  EATOM  =      6595.95197522
  Solvation  Ediel_sol  =         0.00000000
  ---------------------------------------------------
  free energy    TOTEN  =      -333.57677546 eV

  energy without entropy =     -333.57677546  energy(sigma->0) =     -333.57677546


--------------------------------------------------------------------------------------------------------




--------------------------------------- Iteration      1(   2)  ---------------------------------------


    POTLOK:  cpu time      0.0853: real time      0.0868
    SETDIJ:  cpu time      0.0401: real time      0.0403
    EDDIAG:  cpu time      9.0337: real time      9.0578
  RMM-DIIS:  cpu time     20.5951: real time     20.6480
    ORTHCH:  cpu time      0.1083: real time      0.1086
       DOS:  cpu time      0.0601: real time      0.0977
    CHARGE:  cpu time      2.5090: real time      2.5154
    MIXING:  cpu time      0.0004: real time      0.0004
    --------------------------------------------
      LOOP:  cpu time     32.4321: real time     32.5550

 eigenvalue-minimisations  :  1360
 total energy-change (2. order) :-0.9376638E+01  (-0.9385585E+01)
 number of electron     255.9999983 magnetization 
 augmentation part      -14.6626145 magnetization 

 Broyden mixing:
  rms(total) = 0.83987E-01    rms(broyden)= 0.83985E-01
  rms(prec ) = 0.86547E-01
  weight for this iteration     100.00

 eigenvalues of (default mixing * dielectric matrix)
  average eigenvalue GAMMA=   0.8765
  0.8765

 Free energy of the ion-electron system (eV)
  ---------------------------------------------------
  alpha Z        PSCENC =       105.38173264
  Ewald energy   TEWEN  =     -7259.79303903
  -Hartree energ DENC   =      -485.32641070
  -exchange      EXHF   =         0.00000000
  -V(xc)+E(xc)   XCENC  =      -578.02376804
  PAW double counting   =     32986.41848205   -31867.00301157
  entropy T*S    EENTRO =        -0.00000000
  eigenvalues    EBANDS =       159.44062617
  atomic energy  EATOM  =      6595.95197522
  Solvation  Ediel_sol  =         0.00000000
  ---------------------------------------------------
  free energy    TOTEN  =      -342.95341328 eV

  energy without entropy =     -342.95341328  energy(sigma->0) =     -342.95341328


--------------------------------------------------------------------------------------------------------




--------------------------------------- Iteration      1(   3)  ---------------------------------------


    POTLOK:  cpu time      0.0421: real time      0.0422
    SETDIJ:  cpu time      0.1195: real time      0.1198
    EDDIAG:  cpu time      9.0956: real time      9.1197
  RMM-DIIS:  cpu time     24.5126: real time     24.5772
    ORTHCH:  cpu time      0.1164: real time      0.1167
       DOS:  cpu time      0.0376: real time      0.0377
    CHARGE:  cpu time      2.5759: real time      2.5827
    MIXING:  cpu time      0.2355: real time      0.2361
    --------------------------------------------
      LOOP:  cpu time     36.7352: real time     36.8321

 eigenvalue-minimisations  :  1538
 total energy-change (2. order) :-0.1336827E+01  (-0.1587250E+01)
 number of electron     255.9999983 magnetization 
 augmentation part      -14.6631124 magnetization 

 Broyden mixing:
  rms(total) = 0.14408E+00    rms(broyden)= 0.14408E+00
  rms(prec ) = 0.14546E+00
  weight for this iteration     100.00

 eigenvalues of (default mixing * dielectric matrix)
  average eigenvalue GAMMA=   0.7618
  0.7618  0.7618

 Free energy of the ion-electron system (eV)
  ---------------------------------------------------
  alpha Z        PSCENC =       105.38173264
  Ewald energy   TEWEN  =     -7259.79303903
  -Hartree energ DENC   =      -485.66143730
  -exchange      EXHF   =         0.00000000
  -V(xc)+E(xc)   XCENC  =      -578.00636113
  PAW double counting   =     32805.66839725   -31686.28330573
  entropy T*S    EENTRO =        -0.00000000
  eigenvalues    EBANDS =       158.45179793
  atomic energy  EATOM  =      6595.95197522
  Solvation  Ediel_sol  =         0.00000000
  ---------------------------------------------------
  free energy    TOTEN  =      -344.29024015 eV

  energy without entropy =     -344.29024015  energy(sigma->0) =     -344.29024015


--------------------------------------------------------------------------------------------------------




--------------------------------------- Iteration      1(   4)  ---------------------------------------


    POTLOK:  cpu time      0.1685: real time      0.1821
    SETDIJ:  cpu time      0.1346: real time      0.1349
    EDDIAG:  cpu time      4.0247: real time      4.0357
  RMM-DIIS:  cpu time     24.4264: real time     24.4906
    ORTHCH:  cpu time      0.2760: real time      0.2767
       DOS:  cpu time      0.1017: real time      0.1020
    CHARGE:  cpu time      2.9672: real time      2.9750
    MIXING:  cpu time      0.3182: real time      0.7189
    --------------------------------------------
      LOOP:  cpu time     32.4173: real time     32.9160

 eigenvalue-minimisations  :  1597
 total energy-change (2. order) :-0.2473749E+00  (-0.2522258E+00)
 number of electron     255.9999983 magnetization 
 augmentation part      -14.6575784 magnetization 

 Broyden mixing:
  rms(total) = 0.13546E+00    rms(broyden)= 0.13546E+00
  rms(prec ) = 0.13677E+00
  weight for this iteration     100.00

 eigenvalues of (default mixing * dielectric matrix)
  average eigenvalue GAMMA=   1.0363
  0.7408  1.1841  1.1841

 Free energy of the ion-electron system (eV)
  ---------------------------------------------------
  alpha Z        PSCENC =       105.38173264
  Ewald energy   TEWEN  =     -7259.79303903
  -Hartree energ DENC   =      -485.93118062
  -exchange      EXHF   =         0.00000000
  -V(xc)+E(xc)   XCENC  =      -578.00202194
  PAW double counting   =     32382.58956598   -31263.23788717
  entropy T*S    EENTRO =        -0.00000000
  eigenvalues    EBANDS =       158.50323987
  atomic energy  EATOM  =      6595.95197522
  Solvation  Ediel_sol  =         0.00000000
  ---------------------------------------------------
  free energy    TOTEN  =      -344.53761505 eV

  energy without entropy =     -344.53761505  energy(sigma->0) =     -344.53761505


--------------------------------------------------------------------------------------------------------




--------------------------------------- Iteration      1(   5)  ---------------------------------------


    POTLOK:  cpu time      0.1421: real time      0.1425
    SETDIJ:  cpu time      0.1232: real time      0.1235
    EDDIAG:  cpu time      5.4445: real time      5.4594
  RMM-DIIS:  cpu time     24.9549: real time     25.0201
    ORTHCH:  cpu time      0.5541: real time      0.5556
       DOS:  cpu time      0.0322: real time      0.0323
    CHARGE:  cpu time      1.4015: real time      1.4054
    MIXING:  cpu time      0.0003: real time      0.0003
    --------------------------------------------
      LOOP:  cpu time     32.6529: real time     32.7391

 eigenvalue-minimisations  :  1587
 total energy-change (2. order) :-0.5091533E-01  (-0.5206420E-01)
 number of electron     255.9999983 magnetization 
 augmentation part      -14.6517140 magnetization 

 Broyden mixing:
  rms(total) = 0.86156E-01    rms(broyden)= 0.86156E-01
  rms(prec ) = 0.86809E-01
  weight for this iteration     100.00

 eigenvalues of (default mixing * dielectric matrix)
  average eigenvalue GAMMA=   1.2802
  1.7409  1.7409  0.8195  0.8195

 Free energy of the ion-electron system (eV)
  ---------------------------------------------------
  alpha Z        PSCENC =       105.38173264
  Ewald energy   TEWEN  =     -7259.79303903
  -Hartree energ DENC   =      -486.37554279
  -exchange      EXHF   =         0.00000000
  -V(xc)+E(xc)   XCENC  =      -577.98840112
  PAW double counting   =     31668.84511571   -30549.54294503
  entropy T*S    EENTRO =        -0.00000000
  eigenvalues    EBANDS =       158.93257403
  atomic energy  EATOM  =      6595.95197522
  Solvation  Ediel_sol  =         0.00000000
  ---------------------------------------------------
  free energy    TOTEN  =      -344.58853037 eV

  energy without entropy =     -344.58853037  energy(sigma->0) =     -344.58853037


--------------------------------------------------------------------------------------------------------




--------------------------------------- Iteration      1(   6)  ---------------------------------------


    POTLOK:  cpu time      0.0304: real time      0.0440
    SETDIJ:  cpu time      0.1026: real time      0.1029
    EDDIAG:  cpu time      7.4603: real time      7.4800
  RMM-DIIS:  cpu time     28.1266: real time     28.1999
    ORTHCH:  cpu time      0.3760: real time      0.3772
       DOS:  cpu time      0.0410: real time      0.0411
    CHARGE:  cpu time      2.1604: real time      2.1661
    MIXING:  cpu time      0.0004: real time      0.0004
    --------------------------------------------
      LOOP:  cpu time     38.2978: real time     38.4115

 eigenvalue-minimisations  :  1542
 total energy-change (2. order) :-0.9017068E-02  (-0.9518102E-02)
 number of electron     255.9999983 magnetization 
 augmentation part      -14.6466293 magnetization 

 Broyden mixing:
  rms(total) = 0.11028E-01    rms(broyden)= 0.11028E-01
  rms(prec ) = 0.11674E-01
  weight for this iteration     100.00

 eigenvalues of (default mixing * dielectric matrix)
  average eigenvalue GAMMA=   1.2491
  2.0716  1.1123  1.1123  1.1715  0.7778

 Free energy of the ion-electron system (eV)
  ---------------------------------------------------
  alpha Z        PSCENC =       105.38173264
  Ewald energy   TEWEN  =     -7259.79303903
  -Hartree energ DENC   =      -486.99411650
  -exchange      EXHF   =         0.00000000
  -V(xc)+E(xc)   XCENC  =      -577.97101076
  PAW double counting   =     30688.71361187   -29569.47540960
  entropy T*S    EENTRO =        -0.00000000
  eigenvalues    EBANDS =       159.58870873
  atomic energy  EATOM  =      6595.95197522
  Solvation  Ediel_sol  =         0.00000000
  ---------------------------------------------------
  free energy    TOTEN  =      -344.59754744 eV

  energy without entropy =     -344.59754744  energy(sigma->0) =     -344.59754744


--------------------------------------------------------------------------------------------------------




--------------------------------------- Iteration      1(   7)  ---------------------------------------


    POTLOK:  cpu time      0.0400: real time      0.0401
    SETDIJ:  cpu time      0.1619: real time      0.1623
    EDDIAG:  cpu time      6.8262: real time      6.8445
  RMM-DIIS:  cpu time     28.1717: real time     28.2448
    ORTHCH:  cpu time      0.4344: real time      0.4357
       DOS:  cpu time      0.1237: real time      0.1240
    CHARGE:  cpu time      2.3667: real time      2.3729
    MIXING:  cpu time      0.0722: real time      0.0724
    --------------------------------------------
      LOOP:  cpu time     38.1966: real time     38.2968

 eigenvalue-minimisations  :  1532
 total energy-change (2. order) :-0.1953607E-02  (-0.1929023E-02)
 number of electron     255.9999983 magnetization 
 augmentation part      -14.6448483 magnetization 

 Broyden mixing:
  rms(total) = 0.16204E-01    rms(broyden)= 0.16204E-01
  rms(prec ) = 0.16695E-01
  weight for this iteration     100.00

 eigenvalues of (default mixing * dielectric matrix)
  average eigenvalue GAMMA=   1.2935
  2.2286  1.4470  1.4470  1.0417  0.7985  0.7985

 Free energy of the ion-electron system (eV)
  ---------------------------------------------------
  alpha Z        PSCENC =       105.38173264
  Ewald energy   TEWEN  =     -7259.79303903
  -Hartree energ DENC   =      -487.11888035
  -exchange      EXHF   =         0.00000000
  -V(xc)+E(xc)   XCENC  =      -577.97243026
  PAW double counting   =     30482.60305155   -29363.37547965
  entropy T*S    EENTRO =        -0.00000000
  eigenvalues    EBANDS =       159.72356884
  atomic energy  EATOM  =      6595.95197522
  Solvation  Ediel_sol  =         0.00000000
  ---------------------------------------------------
  free energy    TOTEN  =      -344.59950105 eV

  energy without entropy =     -344.59950105  energy(sigma->0) =     -344.59950105


--------------------------------------------------------------------------------------------------------




--------------------------------------- Iteration      1(   8)  ---------------------------------------


    POTLOK:  cpu time      0.3550: real time      0.3571
    SETDIJ:  cpu time      0.0018: real time      0.0019
    EDDIAG:  cpu time      6.4854: real time      6.5027
  RMM-DIIS:  cpu time     21.3114: real time     21.3669
    ORTHCH:  cpu time      0.3505: real time      0.3514
       DOS:  cpu time      0.0013: real time      0.0013
    CHARGE:  cpu time      2.1334: real time      2.1389
    MIXING:  cpu time      0.0373: real time      0.0374
    --------------------------------------------
      LOOP:  cpu time     30.6761: real time     30.7577

 eigenvalue-minimisations  :  1220
 total energy-change (2. order) :-0.3000224E-03  (-0.3905326E-03)
 number of electron     255.9999983 magnetization 
 augmentation part      -14.6452113 magnetization 

 Broyden mixing:
  rms(total) = 0.21921E-02    rms(broyden)= 0.21921E-02
  rms(prec ) = 0.24147E-02
  weight for this iteration     100.00

 eigenvalues of (default mixing * dielectric matrix)
  average eigenvalue GAMMA=   1.3465
  2.5539  1.6207  1.6207  0.9445  0.9445  0.9323  0.8093

 Free energy of the ion-electron system (eV)
  ---------------------------------------------------
  alpha Z        PSCENC =       105.38173264
  Ewald energy   TEWEN  =     -7259.79303903
  -Hartree energ DENC   =      -487.00498470
  -exchange      EXHF   =         0.00000000
  -V(xc)+E(xc)   XCENC  =      -577.97850184
  PAW double counting   =     30675.68856720   -29556.44503648
  entropy T*S    EENTRO =        -0.00000000
  eigenvalues    EBANDS =       159.59948593
  atomic energy  EATOM  =      6595.95197522
  Solvation  Ediel_sol  =         0.00000000
  ---------------------------------------------------
  free energy    TOTEN  =      -344.59980107 eV

  energy without entropy =     -344.59980107  energy(sigma->0) =     -344.59980107


--------------------------------------------------------------------------------------------------------




--------------------------------------- Iteration      1(   9)  ---------------------------------------


    POTLOK:  cpu time      0.1955: real time      0.1961
    SETDIJ:  cpu time      0.0018: real time      0.0019
    EDDIAG:  cpu time      6.1620: real time      6.1785
  RMM-DIIS:  cpu time     15.2385: real time     15.2781
    ORTHCH:  cpu time      0.3768: real time      0.3777
       DOS:  cpu time      0.1204: real time      0.1207
    --------------------------------------------
      LOOP:  cpu time     22.0950: real time     22.1530

 eigenvalue-minimisations  :   986
 total energy-change (2. order) :-0.5413640E-04  (-0.6027855E-04)
 number of electron     255.9999983 magnetization 
 augmentation part      -14.6452113 magnetization 

 Free energy of the ion-electron system (eV)
  ---------------------------------------------------
  alpha Z        PSCENC =       105.38173264
  Ewald energy   TEWEN  =     -7259.79303903
  -Hartree energ DENC   =      -486.99483279
  -exchange      EXHF   =         0.00000000
  -V(xc)+E(xc)   XCENC  =      -577.97970554
  PAW double counting   =     30690.90978478   -29571.66264132
  entropy T*S    EENTRO =        -0.00000000
  eigenvalues    EBANDS =       159.58687084
  atomic energy  EATOM  =      6595.95197522
  Solvation  Ediel_sol  =         0.00000000
  ---------------------------------------------------
  free energy    TOTEN  =      -344.59985521 eV

  energy without entropy =     -344.59985521  energy(sigma->0) =     -344.59985521


--------------------------------------------------------------------------------------------------------




 average (electrostatic) potential at core
  the test charge radii are     0.9892
  (the norm of the test charge is              1.0000)
       1 -83.4873       2 -83.5291       3 -83.4677       4 -83.4824       5 -83.4816
       6 -83.5023       7 -83.4881       8 -83.5014       9 -83.5246      10 -83.4763
      11 -83.5278      12 -83.5476      13 -83.5505      14 -83.4804      15 -83.5346
      16 -83.4651      17 -83.4847      18 -83.4675      19 -83.5127      20 -83.5047
      21 -83.4768      22 -83.5017      23 -83.4544      24 -83.4992      25 -83.4858
      26 -83.5226      27 -83.4880      28 -83.4606      29 -83.4617      30 -83.5045
      31 -83.4794      32 -83.5263      33 -83.5038      34 -83.4900      35 -83.5101
      36 -83.4652      37 -83.4833      38 -83.5158      39 -83.5285      40 -83.4687
      41 -83.5139      42 -83.4914      43 -83.5007      44 -83.4777      45 -83.4870
      46 -83.4765      47 -83.5027      48 -83.5093      49 -83.4596      50 -83.5255
      51 -83.5226      52 -83.4870      53 -83.5107      54 -83.4669      55 -83.4936
      56 -83.5613      57 -83.4703      58 -83.4791      59 -83.4809      60 -83.5505
      61 -83.5020      62 -83.5087      63 -83.5170      64 -83.4787
 
 
 
 E-fermi :   5.9175     XC(G=0):  -9.3338     alpha+bet :-11.7317

 Fermi energy:         5.9175264517

 k-point     1 :       0.2500    0.2500    0.2500
  band No.  band energies     occupation 
      1      -6.0260      2.00000
      2      -5.5125      2.00000
      3      -5.4914      2.00000
      4      -5.4747      2.00000
      5      -4.9977      2.00000
      6      -4.9815      2.00000
      7      -4.9589      2.00000
      8      -4.5448      2.00000
      9      -4.4909      2.00000
     10      -4.4637      2.00000
     11      -4.4401      2.00000
     12      -4.0971      2.00000
     13      -4.0824      2.00000
     14      -4.0613      2.00000
     15      -4.0313      2.00000
     16      -3.9891      2.00000
     17      -3.9812      2.00000
     18      -3.8615      2.00000
     19      -3.7932      2.00000
     20      -3.7456      2.00000
     21      -3.3677      2.00000
     22      -3.3263      2.00000
     23      -3.3120      2.00000
     24      -3.0268      2.00000
     25      -3.0037      2.00000
     26      -2.9288      2.00000
     27      -2.8449      2.00000
     28      -2.8208      2.00000
     29      -2.7845      2.00000
     30      -2.7560      2.00000
     31      -2.7252      2.00000
     32      -2.7152      2.00000
     33      -1.3416      2.00000
     34      -1.3203      2.00000
     35      -1.2742      2.00000
     36      -1.2626      2.00000
     37      -1.2458      2.00000
     38      -1.2227      2.00000
     39      -1.1826      2.00000
     40      -1.1639      2.00000
     41      -1.1239      2.00000
     42      -1.0709      2.00000
     43      -1.0348      2.00000
     44      -1.0136      2.00000
     45      -0.9788      2.00000
     46      -0.9237      2.00000
     47      -0.8936      2.00000
     48      -0.2717      2.00000
     49      -0.2070      2.00000
     50      -0.1836      2.00000
     51      -0.1715      2.00000
     52      -0.1501      2.00000
     53      -0.1283      2.00000
     54      -0.0937      2.00000
     55       0.6412      2.00000
     56       0.6866      2.00000
     57       0.7554      2.00000
     58       1.0082      2.00000
     59       1.0300      2.00000
     60       1.0557      2.00000
     61       1.5990      2.00000
     62       1.6150      2.00000
     63       1.6318      2.00000
     64       1.6489      2.00000
     65       1.6642      2.00000
     66       1.6774      2.00000
     67       1.7144      2.00000
     68       1.7321      2.00000
     69       1.7482      2.00000
     70       2.2011      2.00000
     71       2.2274      2.00000
     72       2.2431      2.00000
     73       2.2930      2.00000
     74       2.3148      2.00000
     75       2.3518      2.00000
     76       2.3610      2.00000
     77       2.3703      2.00000
     78       2.3855      2.00000
     79       2.4436      2.00000
     80       2.4574      2.00000
     81       2.4869      2.00000
     82       2.6982      2.00000
     83       2.7137      2.00000
     84       2.7217      2.00000
     85       2.7290      2.00000
     86       2.7489      2.00000
     87       2.7694      2.00000
     88       2.9623      2.00000
     89       2.9956      2.00000
     90       3.0043      2.00000
     91       3.0177      2.00000
     92       3.0309      2.00000
     93       3.0652      2.00000
     94       3.2615      2.00000
     95       3.2904      2.00000
     96       3.3372      2.00000
     97       3.3758      2.00000
     98       3.3827      2.00000
     99       3.4126      2.00000
    100       3.4690      2.00000
    101       3.4828      2.00000
    102       3.4925      2.00000
    103       3.6473      2.00000
    104       3.6939      2.00000
    105       3.7343      2.00000
    106       3.7694      2.00000
    107       3.7742      2.00000
    108       3.7891      2.00000
    109       3.8149      2.00000
    110       3.8275      2.00000
    111       3.8427      2.00000
    112       4.0259      2.00000
    113       4.1029      2.00000
    114       4.1417      2.00000
    115       4.1771      2.00000
    116       4.3326      2.00000
    117       4.3579      2.00000
    118       4.3725      2.00000
    119       4.3985      2.00000
    120       4.4055      2.00000
    121       4.4798      2.00000
    122       4.5607      2.00000
    123       4.5965      2.00000
    124       4.8965      2.00000
    125       4.9272      2.00000
    126       4.9464      2.00000
    127       5.3711      2.00000
    128       5.4100      2.00000
    129       6.4833      0.00000
    130       6.5541      0.00000
    131       6.5839      0.00000
    132       6.9445      0.00000
    133       6.9736      0.00000
    134       7.0070      0.00000
    135       7.1731      0.00000
    136       7.4188      0.00000
    137       7.4498      0.00000
    138       7.4670      0.00000
    139       7.4958      0.00000
    140       7.5734      0.00000
    141       7.5956      0.00000
    142       7.7011      0.00000
    143       7.7290      0.00000
    144       7.7370      0.00000
    145       7.7639      0.00000
    146       7.7888      0.00000
    147       7.7983      0.00000
    148       7.9223      0.00000
    149       7.9621      0.00000
    150       7.9668      0.00000
    151       7.9866      0.00000
    152       8.0452      0.00000
    153       8.0548      0.00000
    154       8.0737      0.00000
    155       8.2483      0.00000
    156       8.2524      0.00000
    157       8.2739      0.00000
    158       8.3600      0.00000
    159       8.4110      0.00000
    160       8.4331      0.00000
    161       8.4713      0.00000

 k-point     2 :       0.2500   -0.2500   -0.2500
  band No.  band energies     occupation 
      1      -6.0271      2.00000
      2      -5.5108      2.00000
      3      -5.4881      2.00000
      4      -5.4713      2.00000
      5      -5.0064      2.00000
      6      -4.9886      2.00000
      7      -4.9625      2.00000
      8      -4.5572      2.00000
      9      -4.4754      2.00000
     10      -4.4617      2.00000
     11      -4.4340      2.00000
     12      -4.1032      2.00000
     13      -4.0684      2.00000
     14      -4.0499      2.00000
     15      -4.0350      2.00000
     16      -3.9878      2.00000
     17      -3.9577      2.00000
     18      -3.8603      2.00000
     19      -3.8105      2.00000
     20      -3.7726      2.00000
     21      -3.3552      2.00000
     22      -3.3419      2.00000
     23      -3.3203      2.00000
     24      -3.0260      2.00000
     25      -2.9772      2.00000
     26      -2.9268      2.00000
     27      -2.8516      2.00000
     28      -2.8244      2.00000
     29      -2.7898      2.00000
     30      -2.7635      2.00000
     31      -2.7305      2.00000
     32      -2.7012      2.00000
     33      -1.3525      2.00000
     34      -1.3272      2.00000
     35      -1.2975      2.00000
     36      -1.2662      2.00000
     37      -1.2583      2.00000
     38      -1.2204      2.00000
     39      -1.1847      2.00000
     40      -1.1504      2.00000
     41      -1.1182      2.00000
     42      -1.0565      2.00000
     43      -1.0258      2.00000
     44      -1.0040      2.00000
     45      -0.9798      2.00000
     46      -0.9116      2.00000
     47      -0.8732      2.00000
     48      -0.2603      2.00000
     49      -0.2328      2.00000
     50      -0.1933      2.00000
     51      -0.1759      2.00000
     52      -0.1519      2.00000
     53      -0.1237      2.00000
     54      -0.1034      2.00000
     55       0.6421      2.00000
     56       0.7158      2.00000
     57       0.7506      2.00000
     58       1.0041      2.00000
     59       1.0361      2.00000
     60       1.0550      2.00000
     61       1.5901      2.00000
     62       1.6159      2.00000
     63       1.6287      2.00000
     64       1.6495      2.00000
     65       1.6639      2.00000
     66       1.6686      2.00000
     67       1.7020      2.00000
     68       1.7171      2.00000
     69       1.7507      2.00000
     70       2.2078      2.00000
     71       2.2397      2.00000
     72       2.2541      2.00000
     73       2.2991      2.00000
     74       2.3076      2.00000
     75       2.3359      2.00000
     76       2.3512      2.00000
     77       2.3652      2.00000
     78       2.3773      2.00000
     79       2.4232      2.00000
     80       2.4545      2.00000
     81       2.4846      2.00000
     82       2.6843      2.00000
     83       2.7209      2.00000
     84       2.7322      2.00000
     85       2.7420      2.00000
     86       2.7579      2.00000
     87       2.7961      2.00000
     88       2.9575      2.00000
     89       2.9819      2.00000
     90       2.9965      2.00000
     91       3.0088      2.00000
     92       3.0258      2.00000
     93       3.0391      2.00000
     94       3.2941      2.00000
     95       3.3240      2.00000
     96       3.3508      2.00000
     97       3.3646      2.00000
     98       3.4094      2.00000
     99       3.4446      2.00000
    100       3.4683      2.00000
    101       3.4800      2.00000
    102       3.5108      2.00000
    103       3.6774      2.00000
    104       3.7036      2.00000
    105       3.7199      2.00000
    106       3.7437      2.00000
    107       3.7605      2.00000
    108       3.7968      2.00000
    109       3.8158      2.00000
    110       3.8271      2.00000
    111       3.8425      2.00000
    112       4.0339      2.00000
    113       4.0861      2.00000
    114       4.1443      2.00000
    115       4.1512      2.00000
    116       4.3217      2.00000
    117       4.3495      2.00000
    118       4.3675      2.00000
    119       4.3965      2.00000
    120       4.4615      2.00000
    121       4.4885      2.00000
    122       4.5534      2.00000
    123       4.5849      2.00000
    124       4.8688      2.00000
    125       4.9153      2.00000
    126       4.9567      2.00000
    127       5.3471      2.00000
    128       5.3970      2.00000
    129       6.4675      0.00000
    130       6.5286      0.00000
    131       6.5696      0.00000
    132       6.9352      0.00000
    133       6.9863      0.00000
    134       7.0306      0.00000
    135       7.1534      0.00000
    136       7.3996      0.00000
    137       7.4371      0.00000
    138       7.4663      0.00000
    139       7.5508      0.00000
    140       7.5720      0.00000
    141       7.5991      0.00000
    142       7.6911      0.00000
    143       7.7158      0.00000
    144       7.7563      0.00000
    145       7.7672      0.00000
    146       7.7817      0.00000
    147       7.8019      0.00000
    148       7.9424      0.00000
    149       7.9675      0.00000
    150       7.9899      0.00000
    151       8.0275      0.00000
    152       8.0508      0.00000
    153       8.0844      0.00000
    154       8.1917      0.00000
    155       8.2343      0.00000
    156       8.2915      0.00000
    157       8.2866      0.00000
    158       8.5304      0.00000
    159       8.5772      0.00000
    160       9.0468      0.00000
    161       9.1325      0.00000

 k-point     3 :       0.2500   -0.2500    0.2500
  band No.  band energies     occupation 
      1      -6.0260      2.00000
      2      -5.5161      2.00000
      3      -5.4920      2.00000
      4      -5.4702      2.00000
      5      -4.9954      2.00000
      6      -4.9797      2.00000
      7      -4.9606      2.00000
      8      -4.5631      2.00000
      9      -4.4861      2.00000
     10      -4.4552      2.00000
     11      -4.4389      2.00000
     12      -4.1249      2.00000
     13      -4.0799      2.00000
     14      -4.0434      2.00000
     15      -4.0330      2.00000
     16      -3.9962      2.00000
     17      -3.9821      2.00000
     18      -3.8036      2.00000
     19      -3.7868      2.00000
     20      -3.7777      2.00000
     21      -3.3510      2.00000
     22      -3.3434      2.00000
     23      -3.3306      2.00000
     24      -3.0359      2.00000
     25      -2.9954      2.00000
     26      -2.9563      2.00000
     27      -2.8234      2.00000
     28      -2.7857      2.00000
     29      -2.7810      2.00000
     30      -2.7672      2.00000
     31      -2.7407      2.00000
     32      -2.7146      2.00000
     33      -1.3405      2.00000
     34      -1.3257      2.00000
     35      -1.2963      2.00000
     36      -1.2723      2.00000
     37      -1.2494      2.00000
     38      -1.2249      2.00000
     39      -1.1762      2.00000
     40      -1.1620      2.00000
     41      -1.1315      2.00000
     42      -1.0549      2.00000
     43      -1.0174      2.00000
     44      -0.9970      2.00000
     45      -0.9701      2.00000
     46      -0.9160      2.00000
     47      -0.8984      2.00000
     48      -0.2486      2.00000
     49      -0.2179      2.00000
     50      -0.2064      2.00000
     51      -0.1945      2.00000
     52      -0.1517      2.00000
     53      -0.1319      2.00000
     54      -0.1037      2.00000
     55       0.6827      2.00000
     56       0.7159      2.00000
     57       0.7495      2.00000
     58       1.0116      2.00000
     59       1.0385      2.00000
     60       1.0467      2.00000
     61       1.6070      2.00000
     62       1.6167      2.00000
     63       1.6276      2.00000
     64       1.6398      2.00000
     65       1.6610      2.00000
     66       1.6715      2.00000
     67       1.7003      2.00000
     68       1.7090      2.00000
     69       1.7327      2.00000
     70       2.1853      2.00000
     71       2.2305      2.00000
     72       2.2574      2.00000
     73       2.3025      2.00000
     74       2.3127      2.00000
     75       2.3336      2.00000
     76       2.3485      2.00000
     77       2.3630      2.00000
     78       2.3848      2.00000
     79       2.4411      2.00000
     80       2.4495      2.00000
     81       2.4811      2.00000
     82       2.6922      2.00000
     83       2.7131      2.00000
     84       2.7299      2.00000
     85       2.7378      2.00000
     86       2.7481      2.00000
     87       2.7814      2.00000
     88       2.9655      2.00000
     89       2.9910      2.00000
     90       3.0002      2.00000
     91       3.0124      2.00000
     92       3.0252      2.00000
     93       3.0504      2.00000
     94       3.3029      2.00000
     95       3.3332      2.00000
     96       3.3493      2.00000
     97       3.3785      2.00000
     98       3.3957      2.00000
     99       3.4248      2.00000
    100       3.4522      2.00000
    101       3.4665      2.00000
    102       3.4950      2.00000
    103       3.6981      2.00000
    104       3.7247      2.00000
    105       3.7360      2.00000
    106       3.7518      2.00000
    107       3.7646      2.00000
    108       3.7902      2.00000
    109       3.8087      2.00000
    110       3.8209      2.00000
    111       3.8455      2.00000
    112       4.0455      2.00000
    113       4.1031      2.00000
    114       4.1348      2.00000
    115       4.1444      2.00000
    116       4.3384      2.00000
    117       4.3552      2.00000
    118       4.3681      2.00000
    119       4.4064      2.00000
    120       4.4476      2.00000
    121       4.4782      2.00000
    122       4.5715      2.00000
    123       4.5949      2.00000
    124       4.8699      2.00000
    125       4.9040      2.00000
    126       4.9173      2.00000
    127       5.3490      2.00000
    128       5.3915      2.00000
    129       6.5041      0.00000
    130       6.5404      0.00000
    131       6.5463      0.00000
    132       6.9306      0.00000
    133       6.9708      0.00000
    134       6.9969      0.00000
    135       7.1475      0.00000
    136       7.4210      0.00000
    137       7.4477      0.00000
    138       7.4753      0.00000
    139       7.5386      0.00000
    140       7.5554      0.00000
    141       7.5872      0.00000
    142       7.7155      0.00000
    143       7.7373      0.00000
    144       7.7454      0.00000
    145       7.7575      0.00000
    146       7.7958      0.00000
    147       7.8003      0.00000
    148       7.9149      0.00000
    149       7.9527      0.00000
    150       7.9815      0.00000
    151       8.0058      0.00000
    152       8.0321      0.00000
    153       8.0528      0.00000
    154       8.0840      0.00000
    155       8.2395      0.00000
    156       8.2621      0.00000
    157       8.2839      0.00000
    158       8.3564      0.00000
    159       8.3864      0.00000
    160       8.4405      0.00000
    161       8.5343      0.00000

 k-point     4 :       0.2500    0.2500   -0.2500
  band No.  band energies     occupation 
      1      -6.0267      2.00000
      2      -5.5134      2.00000
      3      -5.4922      2.00000
      4      -5.4667      2.00000
      5      -5.0031      2.00000
      6      -4.9913      2.00000
      7      -4.9598      2.00000
      8      -4.5540      2.00000
      9      -4.4816      2.00000
     10      -4.4630      2.00000
     11      -4.4262      2.00000
     12      -4.1020      2.00000
     13      -4.0654      2.00000
     14      -4.0386      2.00000
     15      -4.0284      2.00000
     16      -4.0150      2.00000
     17      -3.9795      2.00000
     18      -3.8546      2.00000
     19      -3.8033      2.00000
     20      -3.7679      2.00000
     21      -3.3724      2.00000
     22      -3.3322      2.00000
     23      -3.3062      2.00000
     24      -3.0152      2.00000
     25      -2.9778      2.00000
     26      -2.9537      2.00000
     27      -2.8396      2.00000
     28      -2.7957      2.00000
     29      -2.7832      2.00000
     30      -2.7619      2.00000
     31      -2.7404      2.00000
     32      -2.7272      2.00000
     33      -1.3512      2.00000
     34      -1.3129      2.00000
     35      -1.2910      2.00000
     36      -1.2760      2.00000
     37      -1.2505      2.00000
     38      -1.2214      2.00000
     39      -1.1958      2.00000
     40      -1.1552      2.00000
     41      -1.1128      2.00000
     42      -1.0674      2.00000
     43      -1.0236      2.00000
     44      -0.9881      2.00000
     45      -0.9610      2.00000
     46      -0.9347      2.00000
     47      -0.8941      2.00000
     48      -0.2586      2.00000
     49      -0.2184      2.00000
     50      -0.2037      2.00000
     51      -0.1738      2.00000
     52      -0.1564      2.00000
     53      -0.1180      2.00000
     54      -0.0983      2.00000
     55       0.6693      2.00000
     56       0.7050      2.00000
     57       0.7216      2.00000
     58       0.9999      2.00000
     59       1.0439      2.00000
     60       1.0607      2.00000
     61       1.5821      2.00000
     62       1.6165      2.00000
     63       1.6376      2.00000
     64       1.6478      2.00000
     65       1.6605      2.00000
     66       1.6693      2.00000
     67       1.6931      2.00000
     68       1.7166      2.00000
     69       1.7504      2.00000
     70       2.2201      2.00000
     71       2.2356      2.00000
     72       2.2503      2.00000
     73       2.2781      2.00000
     74       2.3171      2.00000
     75       2.3359      2.00000
     76       2.3502      2.00000
     77       2.3735      2.00000
     78       2.3838      2.00000
     79       2.4248      2.00000
     80       2.4751      2.00000
     81       2.4998      2.00000
     82       2.6971      2.00000
     83       2.7030      2.00000
     84       2.7237      2.00000
     85       2.7352      2.00000
     86       2.7590      2.00000
     87       2.7845      2.00000
     88       2.9644      2.00000
     89       2.9833      2.00000
     90       3.0009      2.00000
     91       3.0160      2.00000
     92       3.0422      2.00000
     93       3.0523      2.00000
     94       3.2950      2.00000
     95       3.3142      2.00000
     96       3.3473      2.00000
     97       3.3643      2.00000
     98       3.4014      2.00000
     99       3.4160      2.00000
    100       3.4480      2.00000
    101       3.4822      2.00000
    102       3.5001      2.00000
    103       3.6760      2.00000
    104       3.7049      2.00000
    105       3.7420      2.00000
    106       3.7505      2.00000
    107       3.7705      2.00000
    108       3.7771      2.00000
    109       3.8020      2.00000
    110       3.8216      2.00000
    111       3.8668      2.00000
    112       4.0288      2.00000
    113       4.1097      2.00000
    114       4.1196      2.00000
    115       4.1455      2.00000
    116       4.3176      2.00000
    117       4.3447      2.00000
    118       4.3713      2.00000
    119       4.4005      2.00000
    120       4.4449      2.00000
    121       4.4665      2.00000
    122       4.5710      2.00000
    123       4.5991      2.00000
    124       4.8608      2.00000
    125       4.9263      2.00000
    126       4.9645      2.00000
    127       5.3610      2.00000
    128       5.4076      2.00000
    129       6.4874      0.00000
    130       6.5301      0.00000
    131       6.5550      0.00000
    132       6.9444      0.00000
    133       6.9789      0.00000
    134       7.0049      0.00000
    135       7.1737      0.00000
    136       7.4042      0.00000
    137       7.4323      0.00000
    138       7.4785      0.00000
    139       7.5271      0.00000
    140       7.5539      0.00000
    141       7.5919      0.00000
    142       7.7123      0.00000
    143       7.7312      0.00000
    144       7.7550      0.00000
    145       7.7572      0.00000
    146       7.7870      0.00000
    147       7.8036      0.00000
    148       7.9559      0.00000
    149       7.9977      0.00000
    150       8.0189      0.00000
    151       8.0367      0.00000
    152       8.2014      0.00000
    153       8.2666      0.00000
    154       8.2783      0.00000
    155       8.4578      0.00000
    156       8.5693      0.00000
    157       8.6002      0.00000
    158       9.0163      0.00000
    159       9.0712      0.00000
    160       9.1106      0.00000
    161       9.1555      0.00000


--------------------------------------------------------------------------------------------------------


 soft charge-density along one line, spin component           1
         0         1         2         3         4         5         6         7         8         9
 total charge-density along one line
 
 pseudopotential strength for first ion, spin component:           1
 18.441  25.729  -0.002   0.002  -0.002  -0.004   0.003  -0.003
 25.729  35.901  -0.003   0.002  -0.002  -0.006   0.004  -0.004
 -0.002  -0.003   4.182  -0.000   0.000   7.793  -0.000   0.000
  0.002   0.002  -0.000   4.182  -0.000  -0.000   7.793  -0.000
 -0.002  -0.002   0.000  -0.000   4.182   0.000  -0.000   7.793
 -0.004  -0.006   7.793  -0.000   0.000  14.534  -0.001   0.000
  0.003   0.004  -0.000   7.793  -0.000  -0.001  14.533  -0.001
 -0.003  -0.004   0.000  -0.000   7.793   0.000  -0.001  14.533
 total augmentation occupancy for first ion, spin component:           1
  5.956  -2.293  -0.066  -0.016  -0.131   0.021   0.007   0.045
 -2.293   0.996   0.030   0.028   0.063  -0.009  -0.007  -0.021
 -0.066   0.030   3.289  -0.120   0.124  -0.795   0.039  -0.040
 -0.016   0.028  -0.120   3.313  -0.110   0.039  -0.805   0.038
 -0.131   0.063   0.124  -0.110   3.282  -0.040   0.038  -0.792
  0.021  -0.009  -0.795   0.039  -0.040   0.200  -0.012   0.012
  0.007  -0.007   0.039  -0.805   0.038  -0.012   0.204  -0.012
  0.045  -0.021  -0.040   0.038  -0.792   0.012  -0.012   0.199


------------------------ aborting loop because EDIFF is reached ----------------------------------------


    CHARGE:  cpu time      1.5417: real time      1.5460
    FORLOC:  cpu time      0.0087: real time      0.0087
    FORNL :  cpu time      8.3843: real time      8.4062
    STRESS:  cpu time     34.0535: real time     34.1420
    FORCOR:  cpu time      0.2387: real time      0.2393
    FORHAR:  cpu time      0.0602: real time      0.0604
    MIXING:  cpu time      0.0127: real time      0.0128
    OFIELD:  cpu time      0.0000: real time      0.0000

  FORCE on cell =-STRESS in cart. coord.  units (eV):
  Direction    XX          YY          ZZ          XY          YZ          ZX
  --------------------------------------------------------------------------------------
  Alpha Z   105.38173   105.38173   105.38173
  Ewald   -2419.32976 -2422.03643 -2418.47173    11.77369     4.77304     5.50275
  Hartree   162.39046   160.51923   164.09826     0.73165     0.35015     1.19932
  E(xc)    -808.06645  -808.05230  -808.06276    -0.13647    -0.04257    -0.03253
  Local    -949.35609  -944.66550  -952.11401   -11.70751    -4.89991    -6.46363
  n-local  2483.21014  2482.84701  2482.94842     3.02110     1.09146     0.87737
  augment  -372.15059  -372.13669  -372.14533    -0.12939    -0.03664    -0.04707
  Kinetic  1796.65026  1796.90420  1796.95939    -1.92727    -1.11319    -0.37589
  Fock        0.00000     0.00000     0.00000     0.00000     0.00000     0.00000
  -------------------------------------------------------------------------------------
  Total      -1.27031    -1.23875    -1.40604     1.62579     0.12235     0.66032
  in kB      -1.55550    -1.51686    -1.72170     1.99080     0.14981     0.80857
  external pressure =       -1.60 kB  Pullay stress =        0.00 kB


 VOLUME and BASIS-vectors are now :
 -----------------------------------------------------------------------------
  energy-cutoff  :      250.00
  volume of cell :     1308.43
      direct lattice vectors                 reciprocal lattice vectors
    10.937050680  0.000000000  0.000000000     0.091432328 -0.000019584  0.000034947
     0.002342740 10.937866750  0.000000000     0.000000000  0.091425506 -0.000060856
    -0.004178910  0.007280360 10.937454640     0.000000000  0.000000000  0.091428951

  length of vectors
    10.937050680 10.937867001 10.937457861     0.091432336  0.091425526  0.091428951


 FORCES acting on ions
    electron-ion (+dipol)            ewald-force                    non-local-force                 convergence-correction
 -----------------------------------------------------------------------------------------------
   -.525E+01 -.180E+01 -.664E+00   0.517E+01 0.205E+01 0.449E+00   0.896E+00 0.398E+00 -.294E+00   0.107E-02 -.236E-02 0.708E-03
   -.310E+00 -.205E+01 -.135E+00   0.129E+00 0.237E+01 0.451E+00   0.280E+00 0.268E+00 -.172E+00   0.117E-02 -.638E-03 -.673E-03
   -.185E+01 -.304E+01 -.522E+00   0.187E+01 0.298E+01 0.427E+00   -.916E-01 0.541E+00 -.264E+00   -.128E-03 -.176E-02 -.198E-03
   -.255E+01 -.585E+01 -.124E+00   0.274E+01 0.593E+01 0.126E+00   0.150E+00 0.395E+00 -.149E+00   -.440E-03 0.198E-02 0.201E-02
   -.407E+01 -.303E+01 -.121E+01   0.398E+01 0.298E+01 0.119E+01   0.751E-01 -.357E+00 -.447E-01   0.214E-02 -.306E-02 0.154E-02
   0.319E+01 0.223E+00 -.228E+01   -.275E+01 -.213E+00 0.190E+01   -.406E+00 -.502E+00 0.645E+00   -.597E-03 -.125E-02 -.244E-03
   -.441E+01 -.945E+00 0.664E+00   0.398E+01 0.129E+01 -.795E+00   0.592E+00 -.484E+00 0.272E+00   -.214E-02 -.622E-03 0.111E-02
   -.158E+01 -.373E+01 -.838E+00   0.139E+01 0.358E+01 0.635E+00   0.329E+00 0.442E+00 -.240E+00   -.101E-02 0.213E-03 0.176E-02
   -.204E+01 -.280E+01 -.192E+01   0.206E+01 0.238E+01 0.162E+01   0.583E+00 -.432E+00 0.180E+00   0.148E-02 0.602E-03 -.555E-03
   0.252E-01 -.484E+01 0.213E+01   0.757E-01 0.444E+01 -.190E+01   -.146E+00 0.624E+00 0.727E+00   0.469E-03 0.441E-03 0.117E-02
   0.976E+00 -.338E+01 -.482E+01   -.804E+00 0.296E+01 0.426E+01   -.114E+01 0.283E+00 0.119E+01   0.937E-03 0.748E-03 -.775E-03
   -.647E+01 -.176E+01 0.448E+01   0.622E+01 0.186E+01 -.416E+01   0.386E+00 -.257E+00 -.198E-01   -.131E-02 0.487E-02 -.128E-02
   0.311E+00 -.225E+01 0.488E+00   0.102E+00 0.259E+01 -.775E+00   -.109E+01 0.840E+00 -.916E-01   0.173E-02 0.139E-02 -.120E-02
   0.161E+01 0.112E+01 -.194E+00   -.135E+01 -.918E+00 -.126E+00   0.161E+00 -.266E+00 0.197E+00   0.101E-02 -.262E-02 -.156E-03
   0.202E+01 -.457E+01 -.557E+01   -.143E+01 0.443E+01 0.525E+01   -.108E+00 0.284E+00 0.250E+00   -.199E-03 -.124E-03 -.751E-03
   0.199E+01 0.222E+01 -.265E+01   -.136E+01 -.177E+01 0.224E+01   -.824E+00 -.130E+01 0.546E+00   -.152E-02 0.758E-03 -.363E-02
   0.774E+00 0.966E+00 -.202E+01   -.467E+00 -.610E+00 0.209E+01   -.387E+00 -.171E+00 -.245E+00   -.185E-02 0.141E-02 -.247E-02
   0.681E+00 0.249E+01 -.770E+00   -.585E+00 -.247E+01 0.662E+00   -.740E+00 -.139E-01 0.340E+00   -.120E-02 0.182E-02 0.207E-02
   0.298E+01 0.501E+01 0.123E+01   -.282E+01 -.453E+01 -.840E+00   -.710E+00 -.875E+00 -.678E+00   -.215E-02 0.592E-03 0.137E-02
   -.700E+00 0.912E+01 -.188E+01   0.799E+00 -.848E+01 0.155E+01   0.495E+00 -.175E+01 0.615E+00   0.180E-02 0.630E-03 -.320E-03
   -.194E+01 0.319E+01 -.380E+01   0.170E+01 -.338E+01 0.343E+01   0.379E+00 -.115E+00 0.565E+00   -.351E-03 0.213E-02 0.376E-03
   -.299E+01 -.379E+01 0.369E+01   0.255E+01 0.347E+01 -.320E+01   0.104E+01 0.788E+00 -.864E+00   -.238E-02 0.357E-03 0.148E-02
   -.597E+00 0.328E+01 -.319E+01   0.326E+00 -.325E+01 0.284E+01   0.613E+00 0.165E+00 0.606E+00   -.119E-02 0.116E-02 0.700E-03
   -.946E+00 0.174E+01 -.300E+01   0.709E+00 -.136E+01 0.283E+01   0.189E+00 0.145E+00 0.121E+01   0.238E-02 -.116E-02 -.189E-02
   -.356E+01 0.341E+00 0.200E+01   0.353E+01 -.467E+00 -.181E+01   0.207E+00 -.712E-01 -.305E+00   -.184E-02 0.503E-04 0.184E-02
   0.158E+01 0.149E+01 0.858E+00   -.160E+01 -.221E+01 -.864E+00   -.334E+00 0.999E-01 -.132E+00   -.123E-02 0.170E-02 -.128E-02
   -.479E+01 -.126E+01 0.502E+01   0.421E+01 0.747E+00 -.445E+01   0.526E+00 0.127E+01 -.131E+01   -.224E-02 -.177E-02 -.151E-02
   -.696E+01 -.147E+01 0.128E+01   0.656E+01 0.780E+00 -.140E+01   0.144E+01 0.720E+00 -.464E+00   -.156E-02 -.280E-02 0.764E-04
   -.531E+01 0.568E+01 0.724E-01   0.502E+01 -.522E+01 -.249E+00   0.413E+00 -.620E+00 0.311E+00   -.265E-02 -.218E-02 -.510E-03
   -.137E+01 0.542E+01 0.518E+01   0.152E+01 -.475E+01 -.467E+01   0.925E+00 -.622E+00 -.116E+01   -.150E-02 0.781E-03 -.146E-02
   -.264E+01 0.489E+01 0.159E+01   0.260E+01 -.474E+01 -.133E+01   0.887E+00 -.804E+00 -.306E+00   0.302E-03 -.550E-03 0.831E-03
   -.107E+01 -.204E+01 0.844E+00   0.126E+01 0.189E+01 -.476E+00   -.188E-01 0.260E+00 -.250E+00   -.363E-03 -.167E-02 0.139E-02
   0.485E+01 0.343E+00 -.515E+01   -.439E+01 -.141E+00 0.460E+01   -.131E+01 -.179E-01 0.129E+01   -.164E-02 -.978E-03 0.447E-03
   0.238E+01 -.465E+01 0.129E+01   -.211E+01 0.489E+01 -.114E+01   -.649E+00 0.289E+00 -.146E+00   0.334E-03 0.320E-02 -.652E-03
   0.558E+01 0.335E+01 -.612E+01   -.509E+01 -.267E+01 0.536E+01   -.339E+00 -.150E+01 0.907E+00   0.287E-04 0.470E-03 -.872E-03
   0.305E+01 -.453E+01 0.234E+01   -.301E+01 0.447E+01 -.205E+01   -.176E+00 0.601E+00 0.117E+00   -.874E-03 -.400E-03 0.130E-02
   0.412E+01 -.599E+01 0.924E+00   -.416E+01 0.564E+01 -.628E+00   -.603E+00 0.439E+00 -.823E+00   -.231E-03 -.847E-04 0.292E-03
   -.369E+00 -.511E+01 -.770E+00   0.354E+00 0.449E+01 0.516E+00   -.588E-01 0.532E+00 0.458E+00   -.786E-03 0.322E-03 0.515E-03
   -.311E+00 -.429E+01 -.238E+01   0.222E+00 0.407E+01 0.222E+01   -.152E+00 0.596E+00 0.851E+00   0.186E-02 0.154E-02 0.329E-03
   0.332E+01 0.449E-01 0.117E+01   -.350E+01 -.310E-01 -.107E+01   0.130E+00 -.417E+00 -.782E+00   0.221E-02 -.362E-03 0.368E-02
   0.127E+01 -.180E+01 0.151E+01   -.121E+01 0.150E+01 -.143E+01   -.469E+00 -.457E-02 -.526E+00   -.179E-02 0.210E-02 0.866E-03
   0.919E+00 -.158E+00 0.258E+01   -.929E+00 0.401E+00 -.241E+01   0.179E+00 -.168E+00 -.268E+00   -.124E-02 0.439E-02 0.365E-02
   -.436E+01 -.465E+01 0.499E+01   0.399E+01 0.441E+01 -.480E+01   0.685E+00 0.579E+00 -.176E+01   -.487E-03 0.850E-03 -.885E-03
   0.475E+01 -.706E+01 0.367E+00   -.457E+01 0.666E+01 -.405E+00   -.961E+00 0.111E+01 -.132E+00   0.967E-03 0.218E-02 -.355E-02
   -.725E+00 -.232E-01 0.177E+01   0.512E+00 0.339E+00 -.172E+01   0.649E+00 -.746E+00 -.229E+00   -.583E-03 0.372E-02 0.198E-03
   -.220E+01 0.274E+01 0.233E+01   0.208E+01 -.242E+01 -.239E+01   0.618E+00 -.209E+00 -.256E+00   -.114E-02 0.315E-02 0.158E-02
   -.648E+01 -.635E+01 0.238E+01   0.634E+01 0.611E+01 -.210E+01   0.177E+00 0.166E+00 -.580E-01   0.215E-03 0.133E-02 -.173E-02
   0.410E+01 -.320E+01 -.356E+01   -.376E+01 0.301E+01 0.324E+01   -.189E+00 -.131E+00 0.837E+00   0.226E-02 0.107E-02 -.426E-02
   0.101E+00 0.161E+01 0.276E+01   -.367E+00 -.133E+01 -.219E+01   -.174E+00 -.175E+00 -.110E+01   0.123E-02 0.135E-02 -.183E-02
   0.764E+00 0.133E+02 -.215E+01   -.844E+00 -.123E+02 0.182E+01   0.953E+00 -.197E+01 0.158E+00   0.819E-03 -.121E-02 -.324E-03
   -.481E+00 0.424E+01 0.180E+01   0.244E+00 -.384E+01 -.153E+01   0.786E-01 -.169E+00 -.421E+00   0.216E-02 -.429E-03 0.179E-02
   0.199E+01 0.321E+01 0.747E+00   -.214E+01 -.325E+01 -.688E+00   0.189E+00 -.792E+00 -.401E+00   -.164E-02 0.230E-02 -.490E-03
   -.103E+01 0.153E+01 -.155E+01   0.530E+00 -.210E+01 0.147E+01   0.585E+00 0.758E+00 0.589E-01   0.185E-02 0.101E-02 -.216E-02
   0.304E+01 0.913E+00 0.172E+01   -.283E+01 -.121E+01 -.131E+01   -.916E+00 0.431E+00 -.316E+00   0.178E-02 -.290E-02 -.154E-02
   -.610E+01 0.525E+01 0.470E+01   0.530E+01 -.521E+01 -.414E+01   0.170E+01 -.537E+00 -.102E+01   0.861E-03 -.248E-02 0.281E-02
   0.164E+01 -.225E+01 -.214E+00   -.205E+01 0.191E+01 0.586E+00   0.462E+00 0.159E+01 -.211E+00   -.148E-02 -.161E-02 0.447E-04
   0.293E+01 -.260E+01 -.278E+01   -.301E+01 0.198E+01 0.271E+01   0.397E+00 0.939E+00 0.745E+00   0.259E-02 -.125E-02 0.322E-02
   0.506E+01 0.147E+01 -.237E+01   -.475E+01 -.189E+01 0.191E+01   -.109E+01 0.357E-01 0.703E+00   0.109E-02 -.418E-02 0.284E-02
   -.655E+00 0.146E+01 -.442E+01   0.275E+00 -.153E+01 0.397E+01   0.313E+00 0.282E+00 0.761E+00   0.137E-02 -.214E-03 -.292E-02
   -.258E+00 0.493E+01 0.163E+01   -.972E-01 -.519E+01 -.171E+01   0.606E+00 -.158E+00 0.158E-01   0.110E-02 -.357E-03 -.135E-03
   0.785E+01 0.376E+01 0.182E+01   -.745E+01 -.383E+01 -.156E+01   -.135E+01 0.396E+00 -.900E+00   0.452E-02 -.450E-02 -.328E-03
   -.306E+00 -.394E+01 0.295E+01   0.600E+00 0.383E+01 -.273E+01   -.833E-01 0.122E+01 0.185E+00   -.300E-03 -.346E-02 0.656E-03
   0.445E+01 0.423E+01 -.656E+01   -.376E+01 -.406E+01 0.618E+01   -.177E+01 -.812E+00 0.191E+01   -.679E-03 -.216E-02 -.205E-02
   0.627E+01 0.559E+01 0.438E+01   -.573E+01 -.516E+01 -.349E+01   -.188E+01 -.954E+00 -.405E+00   0.379E-03 -.132E-02 0.108E-02
 -----------------------------------------------------------------------------------------------
   -.999E-01 -.855E-01 0.845E-01   0.782E-13 0.426E-13 0.546E-13   0.110E+00 0.894E-01 -.839E-01   0.139E-02 0.139E-03 0.110E-02
 
 
 POSITION                                       TOTAL-FORCE (eV/Angst)
 -----------------------------------------------------------------------------------
     10.91661     10.93660      0.09327         0.819257      0.649396     -0.507999
      2.69578      2.70826      0.00799         0.099646      0.593091      0.144010
      2.77696     10.89430      2.77068        -0.074875      0.484418     -0.359252
     10.89374      2.75507      2.75405         0.339530      0.474994     -0.143986
      1.37804      1.39373      1.45391        -0.007284     -0.409195     -0.065900
      4.06305      4.17898      1.34270         0.036879     -0.493253      0.263090
      4.22172      1.32789      4.04507         0.153487     -0.136594      0.143138
      1.30048      4.11921      4.17627         0.131287      0.295315     -0.441294
     10.89208      0.07360      5.45875         0.598471     -0.850701     -0.122068
      2.76789      2.65593      5.31576        -0.044366      0.224045      0.964081
      2.89651      0.01543      8.25434        -0.966654     -0.137076      0.628797
      0.15954      2.76350      8.07676         0.134938     -0.157413      0.294861
      1.54531      1.21602      6.80417        -0.673445      1.181272     -0.379441
      4.05188      4.00677      6.85994         0.422031     -0.071033     -0.122921
      4.15291      1.36141      9.68101         0.483524      0.150880     -0.064644
      1.37449      4.19326      9.58794        -0.200071     -0.845086      0.134977
      0.02390      5.56211      0.00600        -0.082770      0.187325     -0.180498
      2.77037      8.27338     10.91836        -0.644920      0.009043      0.234224
      2.69807      5.54486      2.77878        -0.556479     -0.399823     -0.288436
     10.78107      8.32064      2.68053         0.595710     -1.110473      0.283062
      1.33734      6.97223      1.37437         0.141676     -0.304411      0.194018
      4.12392      9.58678      1.35934         0.592052      0.466416     -0.371389
      4.02235      6.87648      4.14933         0.340710      0.191833      0.256306
      1.29211      9.56797      3.99508        -0.046114      0.522016      1.045518
     10.87194      5.54490      5.53440         0.180699     -0.197187     -0.111562
      2.66619      8.29896      5.48075        -0.353464     -0.617775     -0.139441
      2.79285      5.43830      8.27926        -0.058418      0.755784     -0.737951
     10.91845      8.31377      8.22036         1.036840      0.022675     -0.591710
      1.36806      6.87856      6.89973         0.113865     -0.168053      0.133684
      4.04905      9.55112      6.88703         1.068212      0.043022     -0.643475
      4.09810      6.92335      9.59552         0.839712     -0.649089     -0.042383
      1.37073      9.65496      9.58770         0.168184      0.109512      0.118938
      5.66612     10.91391     10.89287        -0.857146      0.182950      0.739686
      8.32953      2.73766     10.88316        -0.373911      0.533150      0.008456
      8.14714      0.01641      2.78347         0.149083     -0.811775      0.146386
      5.51380      2.72421      2.62318        -0.129415      0.540018      0.408350
      6.98807      1.39458      1.35625        -0.647835      0.092759     -0.525918
      9.59922      4.16082      1.33902        -0.075276     -0.085792      0.203373
      9.54512      1.36551      4.04707        -0.238852      0.385453      0.698441
      6.77953      4.10546      4.17786        -0.055035     -0.403511     -0.678360
      5.53278      0.00745      5.59403        -0.409054     -0.302586     -0.436989
      8.14815      2.68625      5.48328         0.168438      0.079233     -0.095499
      8.35387      0.03949      8.33892         0.311338      0.339269     -1.569965
      5.53572      2.69558      8.29035        -0.776580      0.714390     -0.173663
      6.88124      1.36198      6.97055         0.434486     -0.425794     -0.173157
      9.53536      4.03846      6.82841         0.505136      0.110932     -0.321588
      9.76504      1.44894      9.54264         0.044387     -0.067732      0.217986
      6.86320      4.16337      9.58145         0.150349     -0.321449      0.515123
      5.51797      5.52393      0.06646        -0.438946      0.105372     -0.540199
      8.11257      8.24545      0.02372         0.873438     -0.950416     -0.169001
      8.20136      5.42879      2.80320        -0.156480      0.233235     -0.153181
      5.39887      8.26977      2.81510         0.034189     -0.826810     -0.342827
      6.81500      6.85725      1.48519         0.091692      0.193258     -0.017724
      9.48923      9.63135      1.33312        -0.703672      0.133211      0.096275
      9.48526      6.90205      4.12880         0.902255     -0.502818     -0.452697
      6.81950      9.47753      4.17326         0.048017      1.248116      0.161664
      5.37902      5.45134      5.48133         0.313143      0.314029      0.676224
      8.22261      8.20012      5.51706        -0.781774     -0.387062      0.240875
      8.29487      5.42869      8.21907        -0.066993      0.213138      0.302799
      5.50855      8.24126      8.19839         0.252033     -0.409296     -0.066881
      6.91704      6.75852      6.90437        -0.956202      0.320801     -0.644252
      9.56336      9.55210      6.79577         0.210995      1.107092      0.411156
      9.64005      6.93858      9.47121        -1.074244     -0.640070      1.529359
      6.99167      9.60791      9.48000        -1.335414     -0.525171      0.481395
 -----------------------------------------------------------------------------------
    total drift:                                0.011541      0.004068      0.001732


--------------------------------------------------------------------------------------------------------



  FREE ENERGIE OF THE ION-ELECTRON SYSTEM (eV)
  ---------------------------------------------------
  free  energy   TOTEN  =      -344.59985521 eV

  energy  without entropy=     -344.59985521  energy(sigma->0) =     -344.59985521
 


--------------------------------------------------------------------------------------------------------


    POTLOK:  cpu time      0.1202: real time      0.1206


--------------------------------------------------------------------------------------------------------


 writing wavefunctions
     LOOP+:  cpu time    366.9872: real time    369.2720
    4ORBIT:  cpu time      0.0000: real time      0.0000

 total amount of memory used by VASP MPI-rank0    37805. kBytes
=======================================================================

   base      :      30000. kBytes
   nonlr-proj:       1186. kBytes
   fftplans  :        841. kBytes
   grid      :       1174. kBytes
   one-center:          9. kBytes
   wavefun   :       4595. kBytes
 
  
  
 General timing and accounting informations for this job:
 ========================================================
  
                  Total CPU time used (sec):      407.475
                            User time (sec):      407.267
                          System time (sec):        0.208
                         Elapsed time (sec):      410.889
  
                   Maximum memory used (kb):      215908.
                   Average memory used (kb):          N/A
  
                          Minor page faults:        19621
                          Major page faults:         8593
                 Voluntary context switches:         4277
