 vasp.6.4.2 20Jul23 (build Jun 27 2024 19:57:08) complex                        
  
 executed on                 T2A5 date 2026.01.13  19:36:24
 running   28 mpi-ranks, with    1 threads/rank, on    1 nodes
 distrk:  each k-point on   28 cores,    1 groups
 distr:  one band on NCORE=  28 cores,    1 groups


--------------------------------------------------------------------------------------------------------


 INCAR:
   ISTART = 1
   ICHARG = 1
   LWAVE = .T.
   LCHARG = .T.
   ENCUT = 250
   PREC = Normal
   ADDGRID = .F.
   EDIFF = 1E-4
   LREAL = Auto
   ALGO = Fast
   NSW = 0
   IBRION = -1
   ISMEAR = 0
   SIGMA = 0.1
   NPAR = 1
   KPAR = 1
   SYMPREC = 1E-4

 POTCAR:    PAW_PBE Si 05Jan2001                  
 POTCAR:    PAW_PBE Si 05Jan2001                  
   SHA256 =  79d9987ad8750f624c4d6acb2a16d13abf6a777132adc04dc6c8399be72b42bb Si/POTCAR             
   COPYR  = (c) Copyright 05Jan2001 Georg Kresse                                                    
   COPYR  = This file is part of the software VASP. Any use, copying, and all other rights are regul
   COPYR  = If you do not have a valid VASP license, you may not use, copy or distribute this file. 
   VRHFIN =Si: s2p2                                                                                 
   LEXCH  = PE                                                                                      
   EATOM  =   103.0669 eV,    7.5752 Ry                                                             
                                                                                                    
   TITEL  = PAW_PBE Si 05Jan2001                                                                    
   LULTRA =        F    use ultrasoft PP ?                                                          
   IUNSCR =        1    unscreen: 0-lin 1-nonlin 2-no                                               
   RPACOR =    1.500    partial core radius                                                         
   POMASS =   28.085; ZVAL   =    4.000    mass and valenz                                          
   RCORE  =    1.900    outmost cutoff radius                                                       
   RWIGS  =    2.480; RWIGS  =    1.312    wigner-seitz radius (au A)                               
   ENMAX  =  245.345; ENMIN  =  184.009 eV                                                          
   ICORE  =        2    local potential                                                             
   LCOR   =        T    correct aug charges                                                         
   LPAW   =        T    paw PP                                                                      
   EAUG   =  322.069                                                                                
   DEXC   =    0.000                                                                                
   RMAX   =    1.950    core radius for proj-oper                                                   
   RAUG   =    1.300    factor for augmentation sphere                                              
   RDEP   =    1.993    radius for radial grids                                                     
   RDEPT  =    1.837    core radius for aug-charge                                                  
                                                                                                    
   Atomic configuration                                                                             
    6 entries                                                                                       
     n  l   j            E        occ.                                                              
     1  0  0.50     -1785.8828   2.0000                                                             
     2  0  0.50      -139.4969   2.0000                                                             
     2  1  1.50       -95.5546   6.0000                                                             
     3  0  0.50       -10.8127   2.0000                                                             
     3  1  0.50        -4.0811   2.0000                                                             
     3  2  1.50        -4.0817   0.0000                                                             
   Description                                                                                      
     l       E           TYP  RCUT    TYP  RCUT                                                     
     0    -10.8127223     23  1.900                                                                 
     0     -7.6451159     23  1.900                                                                 
     1     -4.0811372     23  1.900                                                                 
     1      2.4879257     23  1.900                                                                 
     2     -4.0817478      7  1.900                                                                 
  local pseudopotential read in
  partial core-charges read in
  partial kinetic energy density read in
  atomic valenz-charges read in
  non local Contribution for L=           0  read in
    real space projection operators read in
  non local Contribution for L=           0  read in
    real space projection operators read in
  non local Contribution for L=           1  read in
    real space projection operators read in
  non local Contribution for L=           1  read in
    real space projection operators read in
    PAW grid and wavefunctions read in
 
   number of l-projection  operators is LMAX  =           4
   number of lm-projection operators is LMMAX =           8
 
 Optimization of the real space projectors (new method)

 maximal supplied QI-value         = 19.84
 optimisation between [QCUT,QGAM] = [  7.94, 16.07] = [ 17.64, 72.34] Ry 
 Optimized for a Real-space Cutoff    1.55 Angstroem

   l    n(q)    QCUT    max X(q) W(low)/X(q) W(high)/X(q)  e(spline) 
   0      7     7.937   159.560    0.97E-04    0.31E-03    0.13E-06
   0      7     7.937   115.863    0.95E-04    0.31E-03    0.13E-06
   1      7     7.937    88.339    0.40E-03    0.66E-03    0.12E-06
   1      7     7.937    48.592    0.39E-03    0.64E-03    0.12E-06
  PAW_PBE Si 05Jan2001                  :
 energy of atom  1       EATOM= -103.0669
 kinetic energy error for atom=    0.0052 (will be added to EATOM!!)
 
 
 POSCAR: Si
  positions in cartesian coordinates
  No initial velocities read in
 exchange correlation table for  LEXCH =        8
   RHO(1)=    0.500       N(1)  =     2000
   RHO(2)=  100.500       N(2)  =     4000
 


--------------------------------------------------------------------------------------------------------


 ion  position               nearest neighbor table
   1  0.994  0.996  0.994-  47 2.31  54 2.36   5 2.42  32 2.43
   2  0.255  0.255  0.999-   6 2.32  16 2.36  15 2.37   5 2.43
   3  0.247  0.004  0.253-   5 2.32   7 2.34  22 2.35  24 2.36
   4  0.006  0.250  0.255-   8 2.34  38 2.38  39 2.42   5 2.47
   5  0.128  0.119  0.120-   3 2.32   1 2.42   2 2.43   4 2.47
   6  0.380  0.370  0.127-   2 2.32  36 2.34  19 2.35  49 2.42
   7  0.374  0.124  0.375-   3 2.34  41 2.36  36 2.38  10 2.44
   8  0.129  0.379  0.372-  19 2.33   4 2.34  10 2.42  25 2.46
   9  0.999  0.995  0.499-  24 2.27  39 2.36  62 2.36  13 2.43
  10  0.246  0.249  0.507-  13 2.37  14 2.40   8 2.42   7 2.44
  11  0.249  1.000  0.750-  15 2.37  13 2.39  32 2.39  30 2.40
  12  0.991  0.251  0.755-  16 2.34  13 2.35  46 2.39  47 2.41
  13  0.117  0.128  0.632-  12 2.35  10 2.37  11 2.39   9 2.43
  14  0.380  0.373  0.628-  44 2.31  10 2.40  57 2.42  27 2.44
  15  0.373  0.125  0.874-  44 2.31  11 2.37   2 2.37  33 2.41
  16  0.121  0.370  0.876-  12 2.34   2 2.36  17 2.40  27 2.42
  17  0.997  0.503  0.997-  63 2.34  16 2.40  21 2.45  38 2.48
  18  0.250  0.751  0.003-  21 2.31  22 2.34  31 2.36  32 2.38
  19  0.254  0.496  0.245-   8 2.33   6 2.35  21 2.36  23 2.45
  20  0.006  0.746  0.254-  55 2.37  21 2.37  24 2.41  54 2.46
  21  0.132  0.627  0.125-  18 2.31  19 2.36  20 2.37  17 2.45
  22  0.368  0.883  0.123-  33 2.34  18 2.34   3 2.35  52 2.44
  23  0.383  0.629  0.371-  52 2.33  57 2.39  26 2.42  19 2.45
  24  0.125  0.881  0.381-   9 2.27   3 2.36  26 2.38  20 2.41
  25  0.995  0.501  0.504-  46 2.33  55 2.38  29 2.40   8 2.46
  26  0.252  0.751  0.500-  24 2.38  29 2.40  23 2.42  30 2.43
  27  0.244  0.502  0.749-  29 2.34  31 2.40  16 2.42  14 2.44
  28  0.004  0.745  0.746-  29 2.23  32 2.31  62 2.36  63 2.39
  29  0.122  0.629  0.628-  28 2.23  27 2.34  25 2.40  26 2.40
  30  0.383  0.881  0.624-  41 2.30  60 2.39  11 2.40  26 2.43
  31  0.370  0.623  0.879-  49 2.32  18 2.36  27 2.40  60 2.44
  32  0.124  0.867  0.870-  28 2.31  18 2.38  11 2.39   1 2.43
  33  0.500  0.995  0.999-  64 2.33  22 2.34  37 2.40  15 2.41
  34  0.744  0.243  0.002-  47 2.31  37 2.34  38 2.40  48 2.40
  35  0.751  0.996  0.248-  54 2.27  56 2.32  39 2.36  37 2.39
  36  0.502  0.255  0.258-  40 2.30   6 2.34   7 2.38  37 2.40
  37  0.620  0.123  0.128-  34 2.34  35 2.39  33 2.40  36 2.40
  38  0.874  0.367  0.128-  51 2.33   4 2.38  34 2.40  17 2.48
  39  0.875  0.119  0.375-  42 2.35   9 2.36  35 2.36   4 2.42
  40  0.633  0.374  0.372-  36 2.30  51 2.34  42 2.39  57 2.47
  41  0.499  0.995  0.492-  30 2.30  56 2.33   7 2.36  45 2.44
  42  0.758  0.250  0.499-  39 2.35  45 2.38  46 2.39  40 2.39
  43  0.745  0.006  0.748-  47 2.36  45 2.37  62 2.40  64 2.42
  44  0.495  0.244  0.749-  15 2.31  14 2.31  45 2.37  48 2.40
  45  0.623  0.129  0.620-  44 2.37  43 2.37  42 2.38  41 2.44
  46  0.871  0.382  0.630-  59 2.28  25 2.33  42 2.39  12 2.39
  47  0.867  0.122  0.882-  34 2.31   1 2.31  43 2.36  12 2.41
  48  0.629  0.371  0.867-  44 2.40  34 2.40  59 2.41  49 2.48
  49  0.498  0.503  0.997-  31 2.32   6 2.42  53 2.46  48 2.48
  50  0.757  0.753  0.998-  63 2.31  64 2.37  54 2.37  53 2.42
  51  0.754  0.496  0.246-  38 2.33  40 2.34  53 2.38  55 2.40
  52  0.502  0.754  0.246-  53 2.33  23 2.33  56 2.43  22 2.44
  53  0.628  0.630  0.129-  52 2.33  51 2.38  50 2.42  49 2.46
  54  0.874  0.879  0.129-  35 2.27   1 2.36  50 2.37  20 2.46
  55  0.873  0.626  0.375-  20 2.37  58 2.37  25 2.38  51 2.40
  56  0.632  0.877  0.376-  58 2.32  35 2.32  41 2.33  52 2.43
  57  0.505  0.506  0.503-  61 2.35  23 2.39  14 2.42  40 2.47
  58  0.752  0.755  0.500-  61 2.31  56 2.32  55 2.37  62 2.41
  59  0.755  0.507  0.750-  46 2.28  63 2.30  61 2.40  48 2.41
  60  0.501  0.755  0.758-  64 2.28  30 2.39  31 2.44  61 2.45
  61  0.630  0.634  0.621-  58 2.31  57 2.35  59 2.40  60 2.45
  62  0.878  0.877  0.632-  28 2.36   9 2.36  43 2.40  58 2.41
  63  0.873  0.628  0.875-  59 2.30  50 2.31  17 2.34  28 2.39
  64  0.624  0.873  0.877-  60 2.28  33 2.33  50 2.37  43 2.42
 
  LATTYP: Found a simple monoclinic cell.
 ALAT       =    10.9600408467
 B/A-ratio  =     1.0000185438
 C/A-ratio  =     1.4141098204
 COS(beta)  =    -0.7070285938
  
  Lattice vectors:
  
 A1 = (  -0.0020157200,   0.0006844100,  10.9600406400)
 A2 = (  -0.0020262700,  10.9602439000,   0.0000000000)
 A3 = ( -10.9584329900,  -0.0006844100, -10.9600406400)


Analysis of symmetry for initial positions (statically):
=====================================================================
 Subroutine PRICEL returns:
 Original cell was already a primitive cell.
 

 Routine SETGRP: Setting up the symmetry group for a 
 simple monoclinic supercell.


 Subroutine GETGRP returns: Found  1 space group operations
 (whereof  1 operations were pure point group operations)
 out of a pool of  4 trial point group operations.


The static configuration has the point symmetry C_1 .


Analysis of symmetry for dynamics (positions and initial velocities):
=====================================================================
 Subroutine PRICEL returns:
 Original cell was already a primitive cell.
 

 Routine SETGRP: Setting up the symmetry group for a 
 simple monoclinic supercell.


 Subroutine GETGRP returns: Found  1 space group operations
 (whereof  1 operations were pure point group operations)
 out of a pool of  4 trial point group operations.


The dynamic configuration has the point symmetry C_1 .


 Subroutine INISYM returns: Found  1 space group operations
 (whereof  1 operations are pure point group operations),
 and found     1 'primitive' translations


----------------------------------------------------------------------------------------

                                     Primitive cell                                     

  volume of cell :    1316.6208

  direct lattice vectors                    reciprocal lattice vectors
    10.960448710  0.000000000  0.000000000     0.091237141  0.000016867  0.000016779
    -0.002026270 10.960243900  0.000000000     0.000000000  0.091238846 -0.000005697
    -0.002015720  0.000684410 10.960040640     0.000000000  0.000000000  0.091240538

  length of vectors
    10.960448710 10.960244087 10.960040847     0.091237144  0.091238846  0.091240538

  position of ions in fractional coordinates (direct lattice)
     0.994073258  0.996495734  0.994121873
     0.255216706  0.254737482  0.999178914
     0.246750723  0.003811427  0.252508271
     0.005771332  0.249612868  0.255492373
     0.128371748  0.118651961  0.119827804
     0.379968626  0.369566190  0.126614187
     0.373766185  0.124311816  0.375183555
     0.129431138  0.379130633  0.372269335
     0.999399452  0.994694935  0.499047446
     0.246076392  0.249171057  0.507461479
     0.248911859  0.999914240  0.749566612
     0.991492202  0.251134212  0.754870397
     0.117330309  0.128209270  0.631742739
     0.380018212  0.373408747  0.627844716
     0.373486031  0.124824724  0.873884380
     0.120521967  0.369694809  0.876156460
     0.996542670  0.503432411  0.996620915
     0.249634054  0.751459168  0.003247632
     0.253663339  0.496013158  0.245290123
     0.005704577  0.746094065  0.253501345
     0.132107980  0.626664078  0.125188606
     0.368058378  0.882720218  0.123420709
     0.382515631  0.628501478  0.370768516
     0.124961573  0.880576915  0.380980036
     0.995214825  0.500961535  0.504108465
     0.252253695  0.751041170  0.500014464
     0.243658220  0.501694808  0.748601081
     0.004157433  0.745074965  0.746318716
     0.122465385  0.629118492  0.627912420
     0.382745132  0.880881920  0.624405360
     0.369811826  0.623322698  0.879468225
     0.123930995  0.867009264  0.869555371
     0.499620586  0.994664348  0.998542452
     0.744259783  0.243256511  0.002422439
     0.751068429  0.996338624  0.247793554
     0.502479089  0.254758127  0.258139608
     0.620306233  0.123007625  0.128469982
     0.873838465  0.366817467  0.128190676
     0.874615910  0.118535061  0.375490599
     0.632907573  0.373876717  0.371646699
     0.498998883  0.994789276  0.492473304
     0.758403546  0.249749430  0.499088419
     0.745453223  0.005692679  0.748232186
     0.494574053  0.244238411  0.749145435
     0.623456886  0.129177353  0.619573111
     0.870940179  0.382437195  0.629873611
     0.867407578  0.122294532  0.882268279
     0.628654929  0.370870489  0.866943563
     0.498379008  0.503200557  0.996531213
     0.757029476  0.752850358  0.998160545
     0.753897222  0.496435212  0.245743501
     0.501695806  0.753664932  0.246344106
     0.628419117  0.629641819  0.128551096
     0.874317891  0.879087635  0.129416307
     0.873344514  0.626133776  0.375113177
     0.631922431  0.877044988  0.375971813
     0.505129302  0.505878655  0.502561560
     0.752321815  0.754754615  0.500002318
     0.755069907  0.507106933  0.749511198
     0.501409605  0.755180252  0.758082486
     0.630466616  0.633553818  0.621481981
     0.878267141  0.876659988  0.632138933
     0.872794533  0.627559880  0.874735098
     0.624344766  0.873200355  0.877177782

  ion indices of the primitive-cell ions
   primitive index   ion index
                 1           1
                 2           2
                 3           3
                 4           4
                 5           5
                 6           6
                 7           7
                 8           8
                 9           9
                10          10
                11          11
                12          12
                13          13
                14          14
                15          15
                16          16
                17          17
                18          18
                19          19
                20          20
                21          21
                22          22
                23          23
                24          24
                25          25
                26          26
                27          27
                28          28
                29          29
                30          30
                31          31
                32          32
                33          33
                34          34
                35          35
                36          36
                37          37
                38          38
                39          39
                40          40
                41          41
                42          42
                43          43
                44          44
                45          45
                46          46
                47          47
                48          48
                49          49
                50          50
                51          51
                52          52
                53          53
                54          54
                55          55
                56          56
                57          57
                58          58
                59          59
                60          60
                61          61
                62          62
                63          63
                64          64

----------------------------------------------------------------------------------------

 
 
 KPOINTS: K-Points                                

Automatic generation of k-mesh.
 Grid dimensions read from file:
 generate k-points for:    2    2    2

 Generating k-lattice:

  Cartesian coordinates                     Fractional coordinates (reciprocal lattice)
     0.045618570  0.000008434  0.000008389     0.500000000  0.000000000  0.000000000
     0.000000000  0.045619423 -0.000002849     0.000000000  0.500000000 -0.000000000
     0.000000000  0.000000000  0.045620269     0.000000000  0.000000000  0.500000000

  Length of vectors
     0.045618572  0.045619423  0.045620269

  Shift w.r.t. Gamma in fractional coordinates (k-lattice)
     0.500000000  0.500000000  0.500000000

 
 Subroutine IBZKPT returns following result:
 ===========================================
 
 Found      4 irreducible k-points:
 
 Following reciprocal coordinates:
            Coordinates               Weight
  0.250000  0.250000  0.250000      2.000000
 -0.250000 -0.250000  0.250000      2.000000
 -0.250000  0.250000  0.250000      2.000000
  0.250000 -0.250000  0.250000      2.000000
 
 Following cartesian coordinates:
            Coordinates               Weight
  0.022809  0.022814  0.022813      2.000000
 -0.022809 -0.022814  0.022807      2.000000
 -0.022809  0.022805  0.022805      2.000000
  0.022809 -0.022805  0.022816      2.000000
 


--------------------------------------------------------------------------------------------------------




 Dimension of arrays:
   k-points           NKPTS =      4   k-points in BZ     NKDIM =      4   number of bands    NBANDS=    161
   number of dos      NEDOS =    301   number of ions     NIONS =     64
   non local maximal  LDIM  =      4   non local SUM 2l+1 LMDIM =      8
   total plane-waves  NPLWV =  74088
   max r-space proj   IRMAX =    930   max aug-charges    IRDMAX=   2081
   dimension x,y,z NGX =    42 NGY =   42 NGZ =   42
   dimension x,y,z NGXF=    84 NGYF=   84 NGZF=   84
   support grid    NGXF=    84 NGYF=   84 NGZF=   84
   ions per type =              64
   NGX,Y,Z   is equivalent  to a cutoff of   6.37,  6.37,  6.37 a.u.
   NGXF,Y,Z  is equivalent  to a cutoff of  12.74, 12.74, 12.74 a.u.

 SYSTEM =  unknown system                          
 POSCAR =  Si                                      

 Startparameter for this run:
   NWRITE =      2    write-flag & timer
   PREC   = normal    normal or accurate (medium, high low for compatibility)
   ISTART =      1    job   : 0-new  1-cont  2-samecut
   ICHARG =      1    charge: 1-file 2-atom 10-const
   ISPIN  =      1    spin polarized calculation?
   LNONCOLLINEAR =      F non collinear calculations
   LSORBIT =      F    spin-orbit coupling
   INIWAV =      1    electr: 0-lowe 1-rand  2-diag
   LASPH  =      F    aspherical Exc in radial PAW
 Electronic Relaxation 1
   ENCUT  =  250.0 eV  18.37 Ry    4.29 a.u.  14.13 14.13 14.13*2*pi/ulx,y,z
   ENINI  =  250.0     initial cutoff
   ENAUG  =  322.1 eV  augmentation charge cutoff
   NELM   =     60;   NELMIN=  2; NELMDL=  0     # of ELM steps 
   EDIFF  = 0.1E-03   stopping-criterion for ELM
   LREAL  =      T    real-space projection
   NLSPLINE    = F    spline interpolate recip. space projectors
   LCOMPAT=      F    compatible to vasp.4.4
   GGA_COMPAT  = T    GGA compatible to vasp.4.4-vasp.4.6
   LMAXPAW     = -100 max onsite density
   LMAXMIX     =    2 max onsite mixed and CHGCAR
   VOSKOWN=      0    Vosko Wilk Nusair interpolation
   ROPT   =   -0.00050
 Ionic relaxation
   EDIFFG = 0.1E-02   stopping-criterion for IOM
   NSW    =      0    number of steps for IOM
   NBLOCK =      1;   KBLOCK =      1    inner block; outer block 
   IBRION =     -1    ionic relax: 0-MD 1-quasi-New 2-CG
   NFREE  =      0    steps in history (QN), initial steepest desc. (CG)
   ISIF   =      2    stress and relaxation
   IWAVPR =     10    prediction:  0-non 1-charg 2-wave 3-comb
   ISYM   =      2    0-nonsym 1-usesym 2-fastsym
   LCORR  =      T    Harris-Foulkes like correction to forces

   POTIM  = 0.5000    time-step for ionic-motion
   TEIN   =    0.0    initial temperature
   TEBEG  =    0.0;   TEEND  =   0.0 temperature during run
   SMASS  =  -3.00    Nose mass-parameter (am)
   estimated Nose-frequenzy (Omega)   =  0.10E-29 period in steps = 0.13E+47 mass=  -0.275E-26a.u.
   SCALEE = 1.0000    scale energy and forces
   NPACO  =    256;   APACO  = 10.0  distance and # of slots for P.C.
   PSTRESS=    0.0 pullay stress

  Mass of Ions in am
   POMASS =  28.09
  Ionic Valenz
   ZVAL   =   4.00
  Atomic Wigner-Seitz radii
   RWIGS  =  -1.00
  virtual crystal weights 
   VCA    =   1.00
   NELECT =     256.0000    total number of electrons
   NUPDOWN=      -1.0000    fix difference up-down

 DOS related values:
   EMIN   =  10.00;   EMAX   =-10.00  energy-range for DOS
   EFERMI =   0.00;   METHOD = LEGACY      
   ISMEAR =     0;   SIGMA  =   0.10  broadening in eV -4-tet -1-fermi 0-gaus

 Electronic relaxation 2 (details)
   IALGO  =     68    algorithm
   LDIAG  =      T    sub-space diagonalisation (order eigenvalues)
   LSUBROT=      F    optimize rotation matrix (better conditioning)
   TURBO    =      0    0=normal 1=particle mesh
   IRESTART =      0    0=no restart 2=restart with 2 vectors
   NREBOOT  =      0    no. of reboots
   NMIN     =      0    reboot dimension
   EREF     =   0.00    reference energy to select bands
   IMIX   =      4    mixing-type and parameters
     AMIX     =   0.40;   BMIX     =  1.00
     AMIX_MAG =   1.60;   BMIX_MAG =  1.00
     AMIN     =   0.10
     WC   =   100.;   INIMIX=   1;  MIXPRE=   1;  MAXMIX= -45

 Intra band minimization:
   WEIMIN = 0.0000     energy-eigenvalue tresh-hold
   EBREAK =  0.16E-06  absolut break condition
   DEPER  =   0.30     relativ break condition  

   TIME   =   0.40     timestep for ELM

  volume/ion in A,a.u.               =      20.57       138.83
  Fermi-wavevector in a.u.,A,eV,Ry     =   0.948421  1.792256 12.238478  0.899503
  Thomas-Fermi vector in A             =   2.076608
 
 Write flags
   LWAVE        =      T    write WAVECAR
   LDOWNSAMPLE  =      F    k-point downsampling of WAVECAR
   LCHARG       =      T    write CHGCAR
   LVTOT        =      F    write LOCPOT, total local potential
   LVHAR        =      F    write LOCPOT, Hartree potential only
   LELF         =      F    write electronic localiz. function (ELF)
   LORBIT       =      0    0 simple, 1 ext, 2 COOP (PROOUT), +10 PAW based schemes


 Dipole corrections
   LMONO  =      F    monopole corrections only (constant potential shift)
   LDIPOL =      F    correct potential (dipole corrections)
   IDIPOL =      0    1-x, 2-y, 3-z, 4-all directions 
   EPSILON=  1.0000000 bulk dielectric constant

 Exchange correlation treatment:
   GGA     =    --    GGA type
   LEXCH   =     8    internal setting for exchange type
   LIBXC   =     F    Libxc                    
   VOSKOWN =     0    Vosko Wilk Nusair interpolation
   LHFCALC =     F    Hartree Fock is set to
   LHFONE  =     F    Hartree Fock one center treatment
   AEXX    =    0.0000 exact exchange contribution

 Linear response parameters
   LEPSILON=     F    determine dielectric tensor
   LRPA    =     F    only Hartree local field effects (RPA)
   LNABLA  =     F    use nabla operator in PAW spheres
   LVEL    =     F    velocity operator in full k-point grid
   CSHIFT  =0.1000    complex shift for real part using Kramers Kronig
   OMEGAMAX=  -1.0    maximum frequency
   DEG_THRESHOLD= 0.2000000E-02 threshold for treating states as degnerate
   RTIME   =   -0.100 relaxation time in fs
  (WPLASMAI=    0.000 imaginary part of plasma frequency in eV, 0.658/RTIME)
   DFIELD  = 0.0000000 0.0000000 0.0000000 field for delta impulse in time
 
  Optional k-point grid parameters
   LKPOINTS_OPT  =     F    use optional k-point grid
   KPOINTS_OPT_MODE=     1    mode for optional k-point grid
 
 Orbital magnetization related:
   ORBITALMAG=     F  switch on orbital magnetization
   LCHIMAG   =     F  perturbation theory with respect to B field
   DQ        =  0.001000  dq finite difference perturbation B field
   LLRAUG    =     F  two centre corrections for induced B field
   LBONE     =     F  B-component reconstruction in AE one-centre
   LVGVCALC  =     T  calculate vGv susceptibility
   LVGVAPPL  =     F  apply vGv susceptibility instead of pGv for G=0

 Random number generation:
   RANDOM_GENERATOR = DEFAULT
   PCG_SEED         = not used


--------------------------------------------------------------------------------------------------------


 Static calculation
 charge density and potential will be updated during run
 non-spin polarized calculation
 RMM-DIIS sequential band-by-band and
  variant of blocked Davidson during initial phase
 perform sub-space diagonalisation
    before iterative eigenvector-optimisation
 modified Broyden-mixing scheme, WC =      100.0
 initial mixing is a Kerker type mixing with AMIX =  0.4000 and BMIX =      1.0000
 Hartree-type preconditioning will be used
 using additional bands           33
 real space projection scheme for non local part
 use partial core corrections
 calculate Harris-corrections to forces 
   (improved forces if not selfconsistent)
 use gradient corrections 
 use of overlap-Matrix (Vanderbilt PP)
 Gauss-broadening in eV      SIGMA  =   0.10


--------------------------------------------------------------------------------------------------------


  energy-cutoff  :      250.00
  volume of cell :     1316.62
      direct lattice vectors                 reciprocal lattice vectors
    10.960448710  0.000000000  0.000000000     0.091237141  0.000016867  0.000016779
    -0.002026270 10.960243900  0.000000000     0.000000000  0.091238846 -0.000005697
    -0.002015720  0.000684410 10.960040640     0.000000000  0.000000000  0.091240538

  length of vectors
    10.960448710 10.960244087 10.960040847     0.091237144  0.091238846  0.091240538


 
 old parameters found on file WAVECAR:
  energy-cutoff  :      250.00
  volume of cell :     1317.10
      direct lattice vectors                 reciprocal lattice vectors
    10.961730640  0.000000000  0.000000000     0.091226471  0.000013018  0.000013213
    -0.001564180 10.961613020  0.000000000     0.000000000  0.091227450 -0.000004644
    -0.001587740  0.000558010 10.961403220     0.000000000  0.000000000  0.091229196

  length of vectors

 
 k-points in units of 2pi/SCALE and weight: K-Points                                
   0.02280929  0.02281393  0.02281290       0.250
  -0.02280929 -0.02281393  0.02280736       0.250
  -0.02280929  0.02280549  0.02280452       0.250
   0.02280929 -0.02280549  0.02281575       0.250
 
 k-points in reciprocal lattice and weights: K-Points                                
   0.25000000  0.25000000  0.25000000       0.250
  -0.25000000 -0.25000000  0.25000000       0.250
  -0.25000000  0.25000000  0.25000000       0.250
   0.25000000 -0.25000000  0.25000000       0.250
 
 position of ions in fractional coordinates (direct lattice) 
   0.99407326  0.99649573  0.99412187
   0.25521671  0.25473748  0.99917891
   0.24675072  0.00381143  0.25250827
   0.00577133  0.24961287  0.25549237
   0.12837175  0.11865196  0.11982780
   0.37996863  0.36956619  0.12661419
   0.37376619  0.12431182  0.37518355
   0.12943114  0.37913063  0.37226933
   0.99939945  0.99469494  0.49904745
   0.24607639  0.24917106  0.50746148
   0.24891186  0.99991424  0.74956661
   0.99149220  0.25113421  0.75487040
   0.11733031  0.12820927  0.63174274
   0.38001821  0.37340875  0.62784472
   0.37348603  0.12482472  0.87388438
   0.12052197  0.36969481  0.87615646
   0.99654267  0.50343241  0.99662091
   0.24963405  0.75145917  0.00324763
   0.25366334  0.49601316  0.24529012
   0.00570458  0.74609406  0.25350134
   0.13210798  0.62666408  0.12518861
   0.36805838  0.88272022  0.12342071
   0.38251563  0.62850148  0.37076852
   0.12496157  0.88057692  0.38098004
   0.99521483  0.50096154  0.50410846
   0.25225369  0.75104117  0.50001446
   0.24365822  0.50169481  0.74860108
   0.00415743  0.74507497  0.74631872
   0.12246538  0.62911849  0.62791242
   0.38274513  0.88088192  0.62440536
   0.36981183  0.62332270  0.87946823
   0.12393100  0.86700926  0.86955537
   0.49962059  0.99466435  0.99854245
   0.74425978  0.24325651  0.00242244
   0.75106843  0.99633862  0.24779355
   0.50247909  0.25475813  0.25813961
   0.62030623  0.12300763  0.12846998
   0.87383847  0.36681747  0.12819068
   0.87461591  0.11853506  0.37549060
   0.63290757  0.37387672  0.37164670
   0.49899888  0.99478928  0.49247330
   0.75840355  0.24974943  0.49908842
   0.74545322  0.00569268  0.74823219
   0.49457405  0.24423841  0.74914543
   0.62345689  0.12917735  0.61957311
   0.87094018  0.38243720  0.62987361
   0.86740758  0.12229453  0.88226828
   0.62865493  0.37087049  0.86694356
   0.49837901  0.50320056  0.99653121
   0.75702948  0.75285036  0.99816055
   0.75389722  0.49643521  0.24574350
   0.50169581  0.75366493  0.24634411
   0.62841912  0.62964182  0.12855110
   0.87431789  0.87908763  0.12941631
   0.87334451  0.62613378  0.37511318
   0.63192243  0.87704499  0.37597181
   0.50512930  0.50587865  0.50256156
   0.75232181  0.75475461  0.50000232
   0.75506991  0.50710693  0.74951120
   0.50140961  0.75518025  0.75808249
   0.63046662  0.63355382  0.62148198
   0.87826714  0.87665999  0.63213893
   0.87279453  0.62755988  0.87473510
   0.62434477  0.87320035  0.87717778
 
 position of ions in cartesian coordinates  (Angst):
  10.89146592 10.92251668 10.89561613
   2.79475938  2.79266878 10.95104150
   2.70398194  0.04194699  2.76750091
   0.06223560  2.73599278  2.80020679
   1.40653000  1.30053644  1.31331760
   4.16362258  4.05062224  1.38769664
   4.09563695  1.36274460  4.11202701
   1.41710474  4.15561899  4.08008704
  10.95084497 10.90244065  5.46958029
   2.69557989  2.73132287  5.56179843
   2.72464865 10.95981696  8.21528053
  10.86516895  2.75300886  8.27341023
   1.28445963  1.40563724  6.92392609
   4.16314793  4.09308064  6.88120360
   4.09156005  1.36870751  9.57780832
   1.31845965  4.05254493  9.60271041
  10.91952582  5.51842411 10.92300573
   2.73457204  8.23617798  0.03559418
   2.77876452  5.43659307  2.68838972
   0.06050195  8.17754642  2.77838504
   1.44644060  6.86847682  1.37207221
   4.03204756  9.67491335  1.35269599
   4.19052207  6.88878325  4.06363800
   1.36708268  9.65159851  4.17555668
  10.90596982  5.49100563  5.52504926
   2.76228398  8.23193662  5.48017885
   2.66807788  5.49920981  8.20469827
   0.04255324  8.16671413  8.17968346
   1.33973511  6.89572186  6.88194564
   4.19201486  9.65510804  6.84350812
   4.05026777  6.83237072  9.63900749
   1.35482974  9.50322813  9.53036220
   5.47203757 10.90244726 10.94406585
   8.15692339  2.66615235  0.02655003
   8.22952866 10.92028392  2.71582742
   5.50635974  2.79238788  2.82922059
   6.79832644  1.34828150  1.40803622
   9.57666001  4.02049664  1.40497502
   9.58518575  1.29943017  4.11539223
   6.93544428  4.09803437  4.07326293
   5.46624326 10.90347015  5.39752743
   8.31093108  2.73765625  5.47002936
   8.16898205  0.06290525  8.20065517
   5.41874858  2.67742528  8.21066441
   6.83185659  1.41623934  6.79054648
   9.54385059  4.19203603  6.90344038
   9.50515006  1.34098173  9.66969619
   6.88784111  4.06542436  9.50173668
   5.45942921  5.51588287 10.92202259
   8.29384525  8.25210669 10.93988014
   8.26155057  5.44121919  2.69335876
   5.49678746  8.26052007  2.69994141
   6.88622055  6.90111589  1.40892524
   9.58087427  9.63510346  1.41840798
   9.57022291  6.86283563  4.11125566
   6.92361841  9.61288430  4.12066635
   5.53440574  5.54489740  5.50809512
   8.24324746  8.27263687  5.48004572
   8.27336665  5.55852864  8.21467319
   5.49261598  8.27747859  8.30861485
   6.90766052  6.94432972  6.81146777
   9.62315139  9.60883993  6.92826840
   9.56318489  6.87880802  9.58713222
   6.83956130  9.57108921  9.61390414
 


--------------------------------------------------------------------------------------------------------


 k-point   1 :   0.2500 0.2500 0.2500  plane waves:   11792
 k-point   2 :  -0.2500-0.2500 0.2500  plane waves:   11794
 k-point   3 :  -0.2500 0.2500 0.2500  plane waves:   11806
 k-point   4 :   0.2500-0.2500 0.2500  plane waves:   11796

 maximum and minimum number of plane-waves per node :       441      407

 maximum number of plane-waves:     11806
 maximum index in each direction: 
   IXMAX=   14   IYMAX=   14   IZMAX=   13
   IXMIN=  -14   IYMIN=  -14   IZMIN=  -14


 real space projection operators:
  total allocation   :       3417.25 KBytes
  max/ min on nodes  :        170.75         75.00


 parallel 3D FFT for wavefunctions:
    minimum data exchange during FFTs selected (reduces bandwidth)
 parallel 3D FFT for charge:
    minimum data exchange during FFTs selected (reduces bandwidth)


 total amount of memory used by VASP MPI-rank0    37807. kBytes
=======================================================================

   base      :      30000. kBytes
   nonlr-proj:       1178. kBytes
   fftplans  :        841. kBytes
   grid      :       1174. kBytes
   one-center:          9. kBytes
   wavefun   :       4605. kBytes
 
     INWAV:  cpu time     15.1002: real time     15.1336
 Broyden mixing: mesh for mixing (old mesh)
   NGX = 29   NGY = 29   NGZ = 29
  (NGX  = 84   NGY  = 84   NGZ  = 84)
  gives a total of  24389 points

 initial charge density was supplied:
 number of electron     256.0000010 magnetization 
 keeping initial charge density in first step


--------------------------------------------------------------------------------------------------------


 Maximum index for non-local projection operator          111
 Maximum index for augmentation-charges          182 (set IRDMAX)


--------------------------------------------------------------------------------------------------------


 First call to EWALD:  gamma=   0.162
 Maximum number of real-space cells 3x 3x 3
 Maximum number of reciprocal cells 3x 3x 3

    FEWALD:  cpu time      0.0626: real time      0.0627


--------------------------------------- Ionic step        1  -------------------------------------------




--------------------------------------- Iteration      1(   1)  ---------------------------------------


    POTLOK:  cpu time      0.5059: real time      0.5077
    SETDIJ:  cpu time      0.0321: real time      0.0322
     EDDAV:  cpu time     40.5280: real time     40.6343
       DOS:  cpu time      0.0138: real time      0.0138
    CHARGE:  cpu time      2.8599: real time      2.8671
    MIXING:  cpu time      0.0585: real time      0.0587
    --------------------------------------------
      LOOP:  cpu time     43.9982: real time     44.1138

 eigenvalue-minimisations  :  1557
 total energy-change (2. order) :-0.3386889E+03  (-0.3063728E+02)
 number of electron     256.0000001 magnetization 
 augmentation part      -14.6154677 magnetization 

 Broyden mixing:
  rms(total) = 0.28686E+00    rms(broyden)= 0.28686E+00
  rms(prec ) = 0.28857E+00
  weight for this iteration     100.00

 Free energy of the ion-electron system (eV)
  ---------------------------------------------------
  alpha Z        PSCENC =       104.72581172
  Ewald energy   TEWEN  =     -7241.72073313
  -Hartree energ DENC   =      -491.37352611
  -exchange      EXHF   =         0.00000000
  -V(xc)+E(xc)   XCENC  =      -578.62221003
  PAW double counting   =     30475.05970155   -29355.72955609
  entropy T*S    EENTRO =        -0.00000000
  eigenvalues    EBANDS =       153.01967333
  atomic energy  EATOM  =      6595.95197522
  Solvation  Ediel_sol  =         0.00000000
  ---------------------------------------------------
  free energy    TOTEN  =      -338.68886355 eV

  energy without entropy =     -338.68886355  energy(sigma->0) =     -338.68886355


--------------------------------------------------------------------------------------------------------




--------------------------------------- Iteration      1(   2)  ---------------------------------------


    POTLOK:  cpu time      0.4321: real time      0.4506
    SETDIJ:  cpu time      0.0019: real time      0.0019
    EDDIAG:  cpu time      6.8130: real time      6.8307
  RMM-DIIS:  cpu time     25.4871: real time     25.5514
    ORTHCH:  cpu time      0.1756: real time      0.1761
       DOS:  cpu time      0.0392: real time      0.0393
    CHARGE:  cpu time      1.8688: real time      1.8736
    MIXING:  cpu time      0.1379: real time      0.1383
    --------------------------------------------
      LOOP:  cpu time     34.9556: real time     35.0618

 eigenvalue-minimisations  :  1410
 total energy-change (2. order) :-0.5058623E+01  (-0.5062248E+01)
 number of electron     256.0000001 magnetization 
 augmentation part      -14.6463774 magnetization 

 Broyden mixing:
  rms(total) = 0.46704E-01    rms(broyden)= 0.46704E-01
  rms(prec ) = 0.47828E-01
  weight for this iteration     100.00

 eigenvalues of (default mixing * dielectric matrix)
  average eigenvalue GAMMA=   0.8838
  0.8838

 Free energy of the ion-electron system (eV)
  ---------------------------------------------------
  alpha Z        PSCENC =       104.72581172
  Ewald energy   TEWEN  =     -7241.72073313
  -Hartree energ DENC   =      -490.53863832
  -exchange      EXHF   =         0.00000000
  -V(xc)+E(xc)   XCENC  =      -578.66873348
  PAW double counting   =     31647.29749462   -30527.87438062
  entropy T*S    EENTRO =        -0.00000000
  eigenvalues    EBANDS =       147.07971790
  atomic energy  EATOM  =      6595.95197522
  Solvation  Ediel_sol  =         0.00000000
  ---------------------------------------------------
  free energy    TOTEN  =      -343.74748609 eV

  energy without entropy =     -343.74748609  energy(sigma->0) =     -343.74748609


--------------------------------------------------------------------------------------------------------




--------------------------------------- Iteration      1(   3)  ---------------------------------------


    POTLOK:  cpu time      0.1020: real time      0.1024
    SETDIJ:  cpu time      0.0364: real time      0.0365
    EDDIAG:  cpu time      6.5956: real time      6.6125
  RMM-DIIS:  cpu time     29.7194: real time     29.7945
    ORTHCH:  cpu time      0.5249: real time      0.5264
       DOS:  cpu time      0.1174: real time      0.1177
    CHARGE:  cpu time      2.7443: real time      2.7513
    MIXING:  cpu time      0.0003: real time      0.0003
    --------------------------------------------
      LOOP:  cpu time     39.8404: real time     39.9416

 eigenvalue-minimisations  :  1573
 total energy-change (2. order) :-0.8472100E+00  (-0.9072954E+00)
 number of electron     256.0000001 magnetization 
 augmentation part      -14.6438096 magnetization 

 Broyden mixing:
  rms(total) = 0.74612E-01    rms(broyden)= 0.74612E-01
  rms(prec ) = 0.75255E-01
  weight for this iteration     100.00

 eigenvalues of (default mixing * dielectric matrix)
  average eigenvalue GAMMA=   0.8509
  0.8509  0.8509

 Free energy of the ion-electron system (eV)
  ---------------------------------------------------
  alpha Z        PSCENC =       104.72581172
  Ewald energy   TEWEN  =     -7241.72073313
  -Hartree energ DENC   =      -490.64281372
  -exchange      EXHF   =         0.00000000
  -V(xc)+E(xc)   XCENC  =      -578.65274552
  PAW double counting   =     31594.84532450   -30475.44111027
  entropy T*S    EENTRO =        -0.00000000
  eigenvalues    EBANDS =       146.33959509
  atomic energy  EATOM  =      6595.95197522
  Solvation  Ediel_sol  =         0.00000000
  ---------------------------------------------------
  free energy    TOTEN  =      -344.59469612 eV

  energy without entropy =     -344.59469612  energy(sigma->0) =     -344.59469612


--------------------------------------------------------------------------------------------------------




--------------------------------------- Iteration      1(   4)  ---------------------------------------


    POTLOK:  cpu time      0.0463: real time      0.0474
    SETDIJ:  cpu time      0.1135: real time      0.1139
    EDDIAG:  cpu time      7.7801: real time      7.8004
  RMM-DIIS:  cpu time     27.5888: real time     27.6591
    ORTHCH:  cpu time      0.5330: real time      0.5346
       DOS:  cpu time      0.1048: real time      0.1050
    CHARGE:  cpu time      2.2049: real time      2.2105
    MIXING:  cpu time      0.0003: real time      0.0003
    --------------------------------------------
      LOOP:  cpu time     38.3717: real time     38.4713

 eigenvalue-minimisations  :  1564
 total energy-change (2. order) :-0.1709647E+00  (-0.1697424E+00)
 number of electron     256.0000001 magnetization 
 augmentation part      -14.6437393 magnetization 

 Broyden mixing:
  rms(total) = 0.70350E-01    rms(broyden)= 0.70350E-01
  rms(prec ) = 0.70989E-01
  weight for this iteration     100.00

 eigenvalues of (default mixing * dielectric matrix)
  average eigenvalue GAMMA=   0.9252
  0.7095  1.0330  1.0330

 Free energy of the ion-electron system (eV)
  ---------------------------------------------------
  alpha Z        PSCENC =       104.72581172
  Ewald energy   TEWEN  =     -7241.72073313
  -Hartree energ DENC   =      -490.73156783
  -exchange      EXHF   =         0.00000000
  -V(xc)+E(xc)   XCENC  =      -578.65004543
  PAW double counting   =     31360.04295449   -30240.65833622
  entropy T*S    EENTRO =        -0.00000000
  eigenvalues    EBANDS =       146.27428032
  atomic energy  EATOM  =      6595.95197522
  Solvation  Ediel_sol  =         0.00000000
  ---------------------------------------------------
  free energy    TOTEN  =      -344.76566085 eV

  energy without entropy =     -344.76566085  energy(sigma->0) =     -344.76566085


--------------------------------------------------------------------------------------------------------




--------------------------------------- Iteration      1(   5)  ---------------------------------------


    POTLOK:  cpu time      0.2854: real time      0.2861
    SETDIJ:  cpu time      0.1336: real time      0.1340
    EDDIAG:  cpu time      5.1170: real time      5.1304
  RMM-DIIS:  cpu time     18.4809: real time     18.5282
    ORTHCH:  cpu time      0.3736: real time      0.3746
       DOS:  cpu time      0.0013: real time      0.0013
    CHARGE:  cpu time      2.4742: real time      2.4806
    MIXING:  cpu time      0.3171: real time      0.9519
    --------------------------------------------
      LOOP:  cpu time     27.1832: real time     27.8871

 eigenvalue-minimisations  :  1367
 total energy-change (2. order) :-0.2933560E-01  (-0.2951532E-01)
 number of electron     256.0000001 magnetization 
 augmentation part      -14.6405217 magnetization 

 Broyden mixing:
  rms(total) = 0.56330E-01    rms(broyden)= 0.56330E-01
  rms(prec ) = 0.56699E-01
  weight for this iteration     100.00

 eigenvalues of (default mixing * dielectric matrix)
  average eigenvalue GAMMA=   1.2456
  1.6979  1.6979  0.7934  0.7934

 Free energy of the ion-electron system (eV)
  ---------------------------------------------------
  alpha Z        PSCENC =       104.72581172
  Ewald energy   TEWEN  =     -7241.72073313
  -Hartree energ DENC   =      -490.84502477
  -exchange      EXHF   =         0.00000000
  -V(xc)+E(xc)   XCENC  =      -578.64612147
  PAW double counting   =     31134.60714750   -30015.23902432
  entropy T*S    EENTRO =        -0.00000000
  eigenvalues    EBANDS =       146.37097280
  atomic energy  EATOM  =      6595.95197522
  Solvation  Ediel_sol  =         0.00000000
  ---------------------------------------------------
  free energy    TOTEN  =      -344.79499645 eV

  energy without entropy =     -344.79499645  energy(sigma->0) =     -344.79499645


--------------------------------------------------------------------------------------------------------




--------------------------------------- Iteration      1(   6)  ---------------------------------------


    POTLOK:  cpu time      0.0788: real time      0.0820
    SETDIJ:  cpu time      0.0369: real time      0.0370
    EDDIAG:  cpu time      7.2945: real time      7.3134
  RMM-DIIS:  cpu time     26.2881: real time     26.3552
    ORTHCH:  cpu time      0.4583: real time      0.4595
       DOS:  cpu time      0.1107: real time      0.1110
    CHARGE:  cpu time      1.8152: real time      1.8199
    MIXING:  cpu time      0.0334: real time      0.0334
    --------------------------------------------
      LOOP:  cpu time     36.1159: real time     36.2114

 eigenvalue-minimisations  :  1469
 total energy-change (2. order) :-0.4904957E-02  (-0.5032637E-02)
 number of electron     256.0000001 magnetization 
 augmentation part      -14.6385196 magnetization 

 Broyden mixing:
  rms(total) = 0.17748E-01    rms(broyden)= 0.17748E-01
  rms(prec ) = 0.17924E-01
  weight for this iteration     100.00

 eigenvalues of (default mixing * dielectric matrix)
  average eigenvalue GAMMA=   1.2532
  2.1055  1.2139  1.0995  1.0995  0.7479

 Free energy of the ion-electron system (eV)
  ---------------------------------------------------
  alpha Z        PSCENC =       104.72581172
  Ewald energy   TEWEN  =     -7241.72073313
  -Hartree energ DENC   =      -491.05111962
  -exchange      EXHF   =         0.00000000
  -V(xc)+E(xc)   XCENC  =      -578.63847165
  PAW double counting   =     30680.21065718   -29560.87176788
  entropy T*S    EENTRO =        -0.00000000
  eigenvalues    EBANDS =       146.59374675
  atomic energy  EATOM  =      6595.95197522
  Solvation  Ediel_sol  =         0.00000000
  ---------------------------------------------------
  free energy    TOTEN  =      -344.79990141 eV

  energy without entropy =     -344.79990141  energy(sigma->0) =     -344.79990141


--------------------------------------------------------------------------------------------------------




--------------------------------------- Iteration      1(   7)  ---------------------------------------


    POTLOK:  cpu time      0.0390: real time      0.0391
    SETDIJ:  cpu time      0.1152: real time      0.1155
    EDDIAG:  cpu time      7.5506: real time      7.5704
  RMM-DIIS:  cpu time     24.9650: real time     25.0293
    ORTHCH:  cpu time      0.3889: real time      0.3899
       DOS:  cpu time      0.0362: real time      0.0363
    CHARGE:  cpu time      1.5349: real time      1.5389
    MIXING:  cpu time      0.3721: real time      1.0242
    --------------------------------------------
      LOOP:  cpu time     35.0020: real time     35.7436

 eigenvalue-minimisations  :  1330
 total energy-change (2. order) :-0.1053085E-02  (-0.1024613E-02)
 number of electron     256.0000001 magnetization 
 augmentation part      -14.6370293 magnetization 

 Broyden mixing:
  rms(total) = 0.13388E-01    rms(broyden)= 0.13388E-01
  rms(prec ) = 0.13712E-01
  weight for this iteration     100.00

 eigenvalues of (default mixing * dielectric matrix)
  average eigenvalue GAMMA=   1.3022
  2.3225  1.4276  1.4276  1.0067  0.8144  0.8144

 Free energy of the ion-electron system (eV)
  ---------------------------------------------------
  alpha Z        PSCENC =       104.72581172
  Ewald energy   TEWEN  =     -7241.72073313
  -Hartree energ DENC   =      -491.17850285
  -exchange      EXHF   =         0.00000000
  -V(xc)+E(xc)   XCENC  =      -578.63289700
  PAW double counting   =     30378.21859668   -29258.90111085
  entropy T*S    EENTRO =        -0.00000000
  eigenvalues    EBANDS =       146.73590571
  atomic energy  EATOM  =      6595.95197522
  Solvation  Ediel_sol  =         0.00000000
  ---------------------------------------------------
  free energy    TOTEN  =      -344.80095449 eV

  energy without entropy =     -344.80095449  energy(sigma->0) =     -344.80095449


--------------------------------------------------------------------------------------------------------




--------------------------------------- Iteration      1(   8)  ---------------------------------------


    POTLOK:  cpu time      0.0827: real time      0.0840
    SETDIJ:  cpu time      0.0018: real time      0.0018
    EDDIAG:  cpu time      6.9420: real time      6.9574
  RMM-DIIS:  cpu time     21.0614: real time     21.1087
    ORTHCH:  cpu time      0.1122: real time      0.1125
       DOS:  cpu time      0.1512: real time      0.1515
    CHARGE:  cpu time      4.1107: real time      4.1200
    MIXING:  cpu time      0.1499: real time      0.1502
    --------------------------------------------
      LOOP:  cpu time     32.6120: real time     32.6862

 eigenvalue-minimisations  :  1071
 total energy-change (2. order) :-0.1268090E-03  (-0.1701180E-03)
 number of electron     256.0000001 magnetization 
 augmentation part      -14.6373496 magnetization 

 Broyden mixing:
  rms(total) = 0.17138E-02    rms(broyden)= 0.17138E-02
  rms(prec ) = 0.20117E-02
  weight for this iteration     100.00

 eigenvalues of (default mixing * dielectric matrix)
  average eigenvalue GAMMA=   1.3428
  2.4622  1.7089  1.7089  0.9871  0.8860  0.8860  0.7606

 Free energy of the ion-electron system (eV)
  ---------------------------------------------------
  alpha Z        PSCENC =       104.72581172
  Ewald energy   TEWEN  =     -7241.72073313
  -Hartree energ DENC   =      -491.11031214
  -exchange      EXHF   =         0.00000000
  -V(xc)+E(xc)   XCENC  =      -578.63379859
  PAW double counting   =     30522.02595376   -29402.70064213
  entropy T*S    EENTRO =        -0.00000000
  eigenvalues    EBANDS =       146.66066399
  atomic energy  EATOM  =      6595.95197522
  Solvation  Ediel_sol  =         0.00000000
  ---------------------------------------------------
  free energy    TOTEN  =      -344.80108130 eV

  energy without entropy =     -344.80108130  energy(sigma->0) =     -344.80108130


--------------------------------------------------------------------------------------------------------




--------------------------------------- Iteration      1(   9)  ---------------------------------------


    POTLOK:  cpu time      0.2452: real time      0.2457
    SETDIJ:  cpu time      0.1537: real time      0.1540
    EDDIAG:  cpu time      8.0624: real time      8.0809
  RMM-DIIS:  cpu time     16.4499: real time     16.4864
    ORTHCH:  cpu time      0.1035: real time      0.1037
       DOS:  cpu time      0.1747: real time      0.1751
    --------------------------------------------
      LOOP:  cpu time     25.1893: real time     25.2458

 eigenvalue-minimisations  :   992
 total energy-change (2. order) :-0.2619776E-04  (-0.3204818E-04)
 number of electron     256.0000001 magnetization 
 augmentation part      -14.6373496 magnetization 

 Free energy of the ion-electron system (eV)
  ---------------------------------------------------
  alpha Z        PSCENC =       104.72581172
  Ewald energy   TEWEN  =     -7241.72073313
  -Hartree energ DENC   =      -491.08102746
  -exchange      EXHF   =         0.00000000
  -V(xc)+E(xc)   XCENC  =      -578.63358214
  PAW double counting   =     30585.47383275   -29466.14407304
  entropy T*S    EENTRO =        -0.00000000
  eigenvalues    EBANDS =       146.62668857
  atomic energy  EATOM  =      6595.95197522
  Solvation  Ediel_sol  =         0.00000000
  ---------------------------------------------------
  free energy    TOTEN  =      -344.80110750 eV

  energy without entropy =     -344.80110750  energy(sigma->0) =     -344.80110750


--------------------------------------------------------------------------------------------------------




 average (electrostatic) potential at core
  the test charge radii are     0.9892
  (the norm of the test charge is              1.0000)
       1 -83.5948       2 -83.5713       3 -83.5492       4 -83.5453       5 -83.5448
       6 -83.5460       7 -83.5870       8 -83.5705       9 -83.5115      10 -83.5622
      11 -83.5943      12 -83.5708      13 -83.5726      14 -83.5515      15 -83.5450
      16 -83.5478      17 -83.5663      18 -83.5174      19 -83.5601      20 -83.6055
      21 -83.5664      22 -83.5715      23 -83.5828      24 -83.5484      25 -83.5382
      26 -83.5879      27 -83.5471      28 -83.5389      29 -83.5272      30 -83.5626
      31 -83.5499      32 -83.6006      33 -83.5706      34 -83.5423      35 -83.5901
      36 -83.6048      37 -83.5840      38 -83.5262      39 -83.5846      40 -83.5318
      41 -83.5386      42 -83.6106      43 -83.6014      44 -83.5226      45 -83.5552
      46 -83.5859      47 -83.5179      48 -83.6225      49 -83.5359      50 -83.5775
      51 -83.5014      52 -83.5578      53 -83.5482      54 -83.5833      55 -83.5526
      56 -83.5383      57 -83.5882      58 -83.5410      59 -83.5921      60 -83.5625
      61 -83.5537      62 -83.5955      63 -83.6013      64 -83.5368
 
 
 
 E-fermi :   5.8487     XC(G=0):  -9.3057     alpha+bet :-11.6587

 Fermi energy:         5.8487078457

 k-point     1 :       0.2500    0.2500    0.2500
  band No.  band energies     occupation 
      1      -6.0468      2.00000
      2      -5.5865      2.00000
      3      -5.4975      2.00000
      4      -5.4721      2.00000
      5      -5.0822      2.00000
      6      -5.0188      2.00000
      7      -4.9641      2.00000
      8      -4.6172      2.00000
      9      -4.5529      2.00000
     10      -4.4744      2.00000
     11      -4.4451      2.00000
     12      -4.1523      2.00000
     13      -4.1215      2.00000
     14      -4.0834      2.00000
     15      -4.0476      2.00000
     16      -4.0299      2.00000
     17      -3.9878      2.00000
     18      -3.8932      2.00000
     19      -3.8673      2.00000
     20      -3.8172      2.00000
     21      -3.4449      2.00000
     22      -3.3938      2.00000
     23      -3.3358      2.00000
     24      -3.0633      2.00000
     25      -3.0169      2.00000
     26      -2.9797      2.00000
     27      -2.9051      2.00000
     28      -2.8696      2.00000
     29      -2.8422      2.00000
     30      -2.8217      2.00000
     31      -2.7708      2.00000
     32      -2.7411      2.00000
     33      -1.4159      2.00000
     34      -1.3695      2.00000
     35      -1.3536      2.00000
     36      -1.3367      2.00000
     37      -1.2930      2.00000
     38      -1.2676      2.00000
     39      -1.2397      2.00000
     40      -1.2136      2.00000
     41      -1.1831      2.00000
     42      -1.1099      2.00000
     43      -1.0887      2.00000
     44      -1.0496      2.00000
     45      -1.0152      2.00000
     46      -0.9376      2.00000
     47      -0.8795      2.00000
     48      -0.3231      2.00000
     49      -0.2778      2.00000
     50      -0.2515      2.00000
     51      -0.2256      2.00000
     52      -0.2108      2.00000
     53      -0.1745      2.00000
     54      -0.1552      2.00000
     55       0.5859      2.00000
     56       0.6790      2.00000
     57       0.7091      2.00000
     58       0.9540      2.00000
     59       0.9811      2.00000
     60       1.0057      2.00000
     61       1.5460      2.00000
     62       1.5732      2.00000
     63       1.5851      2.00000
     64       1.6079      2.00000
     65       1.6322      2.00000
     66       1.6456      2.00000
     67       1.6553      2.00000
     68       1.6696      2.00000
     69       1.7036      2.00000
     70       2.1688      2.00000
     71       2.1922      2.00000
     72       2.2102      2.00000
     73       2.2406      2.00000
     74       2.2601      2.00000
     75       2.2732      2.00000
     76       2.2898      2.00000
     77       2.3191      2.00000
     78       2.3429      2.00000
     79       2.3694      2.00000
     80       2.3952      2.00000
     81       2.4038      2.00000
     82       2.6084      2.00000
     83       2.6364      2.00000
     84       2.6667      2.00000
     85       2.7187      2.00000
     86       2.7310      2.00000
     87       2.7462      2.00000
     88       2.8960      2.00000
     89       2.9050      2.00000
     90       2.9280      2.00000
     91       2.9485      2.00000
     92       2.9897      2.00000
     93       3.0046      2.00000
     94       3.2393      2.00000
     95       3.2823      2.00000
     96       3.2960      2.00000
     97       3.3360      2.00000
     98       3.3591      2.00000
     99       3.3899      2.00000
    100       3.3979      2.00000
    101       3.4327      2.00000
    102       3.4595      2.00000
    103       3.6088      2.00000
    104       3.6356      2.00000
    105       3.6716      2.00000
    106       3.6902      2.00000
    107       3.7042      2.00000
    108       3.7383      2.00000
    109       3.7498      2.00000
    110       3.7862      2.00000
    111       3.8271      2.00000
    112       3.9896      2.00000
    113       4.0411      2.00000
    114       4.0536      2.00000
    115       4.0892      2.00000
    116       4.2453      2.00000
    117       4.2726      2.00000
    118       4.3127      2.00000
    119       4.3148      2.00000
    120       4.4018      2.00000
    121       4.4588      2.00000
    122       4.4985      2.00000
    123       4.5108      2.00000
    124       4.7737      2.00000
    125       4.8251      2.00000
    126       4.8636      2.00000
    127       5.2797      2.00000
    128       5.3084      2.00000
    129       6.4372      0.00000
    130       6.4855      0.00000
    131       6.5021      0.00000
    132       6.8835      0.00000
    133       6.9081      0.00000
    134       6.9562      0.00000
    135       7.0880      0.00000
    136       7.3604      0.00000
    137       7.3758      0.00000
    138       7.4149      0.00000
    139       7.4832      0.00000
    140       7.5404      0.00000
    141       7.5739      0.00000
    142       7.6279      0.00000
    143       7.6613      0.00000
    144       7.6861      0.00000
    145       7.7137      0.00000
    146       7.7255      0.00000
    147       7.7504      0.00000
    148       7.8589      0.00000
    149       7.9166      0.00000
    150       7.9315      0.00000
    151       7.9567      0.00000
    152       8.0009      0.00000
    153       8.0228      0.00000
    154       8.0336      0.00000
    155       8.1614      0.00000
    156       8.1769      0.00000
    157       8.2044      0.00000
    158       8.3137      0.00000
    159       8.3453      0.00000
    160       8.3827      0.00000
    161       8.4197      0.00000

 k-point     2 :      -0.2500   -0.2500    0.2500
  band No.  band energies     occupation 
      1      -6.0471      2.00000
      2      -5.5686      2.00000
      3      -5.5062      2.00000
      4      -5.4872      2.00000
      5      -5.0645      2.00000
      6      -5.0087      2.00000
      7      -4.9918      2.00000
      8      -4.6089      2.00000
      9      -4.5314      2.00000
     10      -4.4727      2.00000
     11      -4.4603      2.00000
     12      -4.1571      2.00000
     13      -4.1281      2.00000
     14      -4.0861      2.00000
     15      -4.0511      2.00000
     16      -4.0383      2.00000
     17      -3.9903      2.00000
     18      -3.8936      2.00000
     19      -3.8538      2.00000
     20      -3.8172      2.00000
     21      -3.4421      2.00000
     22      -3.3687      2.00000
     23      -3.3487      2.00000
     24      -3.0757      2.00000
     25      -3.0125      2.00000
     26      -2.9966      2.00000
     27      -2.8986      2.00000
     28      -2.8623      2.00000
     29      -2.8366      2.00000
     30      -2.8151      2.00000
     31      -2.7853      2.00000
     32      -2.7388      2.00000
     33      -1.4043      2.00000
     34      -1.3819      2.00000
     35      -1.3444      2.00000
     36      -1.3351      2.00000
     37      -1.3078      2.00000
     38      -1.2661      2.00000
     39      -1.2561      2.00000
     40      -1.2061      2.00000
     41      -1.1568      2.00000
     42      -1.1091      2.00000
     43      -1.0508      2.00000
     44      -1.0333      2.00000
     45      -1.0089      2.00000
     46      -0.9687      2.00000
     47      -0.9364      2.00000
     48      -0.3265      2.00000
     49      -0.2816      2.00000
     50      -0.2541      2.00000
     51      -0.2205      2.00000
     52      -0.2056      2.00000
     53      -0.1725      2.00000
     54      -0.1306      2.00000
     55       0.6087      2.00000
     56       0.6395      2.00000
     57       0.6849      2.00000
     58       0.9644      2.00000
     59       0.9720      2.00000
     60       1.0130      2.00000
     61       1.5629      2.00000
     62       1.5700      2.00000
     63       1.5865      2.00000
     64       1.5977      2.00000
     65       1.6317      2.00000
     66       1.6396      2.00000
     67       1.6582      2.00000
     68       1.6699      2.00000
     69       1.7060      2.00000
     70       2.1492      2.00000
     71       2.1900      2.00000
     72       2.2158      2.00000
     73       2.2415      2.00000
     74       2.2608      2.00000
     75       2.2760      2.00000
     76       2.3008      2.00000
     77       2.3438      2.00000
     78       2.3550      2.00000
     79       2.3703      2.00000
     80       2.3981      2.00000
     81       2.4122      2.00000
     82       2.6360      2.00000
     83       2.6605      2.00000
     84       2.6785      2.00000
     85       2.6923      2.00000
     86       2.7139      2.00000
     87       2.7404      2.00000
     88       2.8915      2.00000
     89       2.9130      2.00000
     90       2.9420      2.00000
     91       2.9612      2.00000
     92       2.9848      2.00000
     93       3.0222      2.00000
     94       3.2396      2.00000
     95       3.2693      2.00000
     96       3.3160      2.00000
     97       3.3270      2.00000
     98       3.3438      2.00000
     99       3.3590      2.00000
    100       3.3932      2.00000
    101       3.4136      2.00000
    102       3.4598      2.00000
    103       3.6220      2.00000
    104       3.6374      2.00000
    105       3.6612      2.00000
    106       3.6818      2.00000
    107       3.6997      2.00000
    108       3.7184      2.00000
    109       3.7381      2.00000
    110       3.7578      2.00000
    111       3.8088      2.00000
    112       3.9816      2.00000
    113       4.0306      2.00000
    114       4.0495      2.00000
    115       4.0974      2.00000
    116       4.2516      2.00000
    117       4.2783      2.00000
    118       4.3204      2.00000
    119       4.3288      2.00000
    120       4.3878      2.00000
    121       4.4131      2.00000
    122       4.5090      2.00000
    123       4.5590      2.00000
    124       4.7888      2.00000
    125       4.8210      2.00000
    126       4.8758      2.00000
    127       5.2803      2.00000
    128       5.3410      2.00000
    129       6.4513      0.00000
    130       6.4710      0.00000
    131       6.5207      0.00000
    132       6.8909      0.00000
    133       6.9113      0.00000
    134       6.9526      0.00000
    135       7.1019      0.00000
    136       7.3609      0.00000
    137       7.3943      0.00000
    138       7.4187      0.00000
    139       7.4944      0.00000
    140       7.5302      0.00000
    141       7.5578      0.00000
    142       7.6537      0.00000
    143       7.6693      0.00000
    144       7.6808      0.00000
    145       7.6974      0.00000
    146       7.7257      0.00000
    147       7.7756      0.00000
    148       7.8861      0.00000
    149       7.9026      0.00000
    150       7.9169      0.00000
    151       7.9439      0.00000
    152       7.9631      0.00000
    153       7.9845      0.00000
    154       8.0327      0.00000
    155       8.1739      0.00000
    156       8.1998      0.00000
    157       8.2376      0.00000
    158       8.3433      0.00000
    159       8.3973      0.00000
    160       8.4293      0.00000
    161       8.4710      0.00000

 k-point     3 :      -0.2500    0.2500    0.2500
  band No.  band energies     occupation 
      1      -6.0467      2.00000
      2      -5.5694      2.00000
      3      -5.5126      2.00000
      4      -5.4820      2.00000
      5      -5.0604      2.00000
      6      -5.0200      2.00000
      7      -4.9849      2.00000
      8      -4.5911      2.00000
      9      -4.5264      2.00000
     10      -4.4800      2.00000
     11      -4.4545      2.00000
     12      -4.1862      2.00000
     13      -4.1277      2.00000
     14      -4.1004      2.00000
     15      -4.0677      2.00000
     16      -4.0464      2.00000
     17      -3.9759      2.00000
     18      -3.8907      2.00000
     19      -3.8539      2.00000
     20      -3.7868      2.00000
     21      -3.4158      2.00000
     22      -3.3813      2.00000
     23      -3.3354      2.00000
     24      -3.0844      2.00000
     25      -3.0660      2.00000
     26      -2.9695      2.00000
     27      -2.8918      2.00000
     28      -2.8820      2.00000
     29      -2.8440      2.00000
     30      -2.8061      2.00000
     31      -2.7706      2.00000
     32      -2.7322      2.00000
     33      -1.4050      2.00000
     34      -1.3726      2.00000
     35      -1.3633      2.00000
     36      -1.3336      2.00000
     37      -1.2976      2.00000
     38      -1.2760      2.00000
     39      -1.2365      2.00000
     40      -1.1970      2.00000
     41      -1.1520      2.00000
     42      -1.0915      2.00000
     43      -1.0590      2.00000
     44      -1.0485      2.00000
     45      -1.0235      2.00000
     46      -1.0024      2.00000
     47      -0.9176      2.00000
     48      -0.3264      2.00000
     49      -0.3024      2.00000
     50      -0.2440      2.00000
     51      -0.2222      2.00000
     52      -0.2066      2.00000
     53      -0.1620      2.00000
     54      -0.1016      2.00000
     55       0.5882      2.00000
     56       0.6135      2.00000
     57       0.6916      2.00000
     58       0.9603      2.00000
     59       0.9916      2.00000
     60       1.0007      2.00000
     61       1.5574      2.00000
     62       1.5740      2.00000
     63       1.5894      2.00000
     64       1.6070      2.00000
     65       1.6237      2.00000
     66       1.6420      2.00000
     67       1.6539      2.00000
     68       1.6847      2.00000
     69       1.7105      2.00000
     70       2.1543      2.00000
     71       2.1752      2.00000
     72       2.2119      2.00000
     73       2.2440      2.00000
     74       2.2738      2.00000
     75       2.3134      2.00000
     76       2.3318      2.00000
     77       2.3520      2.00000
     78       2.3578      2.00000
     79       2.3754      2.00000
     80       2.3888      2.00000
     81       2.4163      2.00000
     82       2.6275      2.00000
     83       2.6423      2.00000
     84       2.6673      2.00000
     85       2.6971      2.00000
     86       2.7099      2.00000
     87       2.7345      2.00000
     88       2.8923      2.00000
     89       2.9385      2.00000
     90       2.9481      2.00000
     91       2.9645      2.00000
     92       2.9932      2.00000
     93       3.0020      2.00000
     94       3.2062      2.00000
     95       3.2357      2.00000
     96       3.2702      2.00000
     97       3.2849      2.00000
     98       3.3613      2.00000
     99       3.3667      2.00000
    100       3.3892      2.00000
    101       3.4172      2.00000
    102       3.4508      2.00000
    103       3.6023      2.00000
    104       3.6499      2.00000
    105       3.6604      2.00000
    106       3.6834      2.00000
    107       3.7044      2.00000
    108       3.7329      2.00000
    109       3.7626      2.00000
    110       3.7839      2.00000
    111       3.7970      2.00000
    112       3.9661      2.00000
    113       4.0452      2.00000
    114       4.0667      2.00000
    115       4.0779      2.00000
    116       4.2537      2.00000
    117       4.2767      2.00000
    118       4.3048      2.00000
    119       4.3456      2.00000
    120       4.3756      2.00000
    121       4.4204      2.00000
    122       4.5087      2.00000
    123       4.5573      2.00000
    124       4.7826      2.00000
    125       4.8279      2.00000
    126       4.8948      2.00000
    127       5.2891      2.00000
    128       5.3432      2.00000
    129       6.4628      0.00000
    130       6.4904      0.00000
    131       6.5365      0.00000
    132       6.8768      0.00000
    133       6.9185      0.00000
    134       6.9737      0.00000
    135       7.1213      0.00000
    136       7.3776      0.00000
    137       7.4229      0.00000
    138       7.4504      0.00000
    139       7.4743      0.00000
    140       7.5039      0.00000
    141       7.5461      0.00000
    142       7.6703      0.00000
    143       7.6854      0.00000
    144       7.6959      0.00000
    145       7.7133      0.00000
    146       7.7309      0.00000
    147       7.7377      0.00000
    148       7.8742      0.00000
    149       7.8912      0.00000
    150       7.9222      0.00000
    151       7.9635      0.00000
    152       7.9971      0.00000
    153       8.0514      0.00000
    154       8.1049      0.00000
    155       8.3113      0.00000
    156       8.3761      0.00000
    157       8.4011      0.00000
    158       8.4721      0.00000
    159       8.5113      0.00000
    160       9.0083      0.00000
    161       9.0511      0.00000

 k-point     4 :       0.2500   -0.2500    0.2500
  band No.  band energies     occupation 
      1      -6.0465      2.00000
      2      -5.5844      2.00000
      3      -5.4988      2.00000
      4      -5.4754      2.00000
      5      -5.0859      2.00000
      6      -5.0150      2.00000
      7      -4.9610      2.00000
      8      -4.6223      2.00000
      9      -4.5254      2.00000
     10      -4.4779      2.00000
     11      -4.4587      2.00000
     12      -4.1625      2.00000
     13      -4.1097      2.00000
     14      -4.0842      2.00000
     15      -4.0620      2.00000
     16      -4.0369      2.00000
     17      -3.9780      2.00000
     18      -3.8923      2.00000
     19      -3.8575      2.00000
     20      -3.8391      2.00000
     21      -3.4314      2.00000
     22      -3.3823      2.00000
     23      -3.3318      2.00000
     24      -3.0697      2.00000
     25      -3.0208      2.00000
     26      -2.9778      2.00000
     27      -2.8956      2.00000
     28      -2.8769      2.00000
     29      -2.8446      2.00000
     30      -2.8134      2.00000
     31      -2.7785      2.00000
     32      -2.7498      2.00000
     33      -1.4107      2.00000
     34      -1.3786      2.00000
     35      -1.3613      2.00000
     36      -1.3448      2.00000
     37      -1.2971      2.00000
     38      -1.2709      2.00000
     39      -1.2195      2.00000
     40      -1.1895      2.00000
     41      -1.1590      2.00000
     42      -1.0897      2.00000
     43      -1.0800      2.00000
     44      -1.0516      2.00000
     45      -0.9972      2.00000
     46      -0.9729      2.00000
     47      -0.9445      2.00000
     48      -0.3334      2.00000
     49      -0.2727      2.00000
     50      -0.2557      2.00000
     51      -0.2280      2.00000
     52      -0.1945      2.00000
     53      -0.1682      2.00000
     54      -0.1196      2.00000
     55       0.5951      2.00000
     56       0.6306      2.00000
     57       0.6800      2.00000
     58       0.9489      2.00000
     59       0.9868      2.00000
     60       1.0054      2.00000
     61       1.5349      2.00000
     62       1.5646      2.00000
     63       1.5957      2.00000
     64       1.6090      2.00000
     65       1.6270      2.00000
     66       1.6393      2.00000
     67       1.6597      2.00000
     68       1.6940      2.00000
     69       1.7105      2.00000
     70       2.1754      2.00000
     71       2.1907      2.00000
     72       2.2086      2.00000
     73       2.2257      2.00000
     74       2.2509      2.00000
     75       2.2906      2.00000
     76       2.2979      2.00000
     77       2.3331      2.00000
     78       2.3498      2.00000
     79       2.3770      2.00000
     80       2.4172      2.00000
     81       2.4334      2.00000
     82       2.6177      2.00000
     83       2.6527      2.00000
     84       2.6748      2.00000
     85       2.6950      2.00000
     86       2.7145      2.00000
     87       2.7646      2.00000
     88       2.8796      2.00000
     89       2.9283      2.00000
     90       2.9575      2.00000
     91       2.9659      2.00000
     92       3.0048      2.00000
     93       3.0127      2.00000
     94       3.2381      2.00000
     95       3.2533      2.00000
     96       3.2921      2.00000
     97       3.3203      2.00000
     98       3.3387      2.00000
     99       3.3718      2.00000
    100       3.3959      2.00000
    101       3.4410      2.00000
    102       3.4458      2.00000
    103       3.6020      2.00000
    104       3.6425      2.00000
    105       3.6748      2.00000
    106       3.6774      2.00000
    107       3.7022      2.00000
    108       3.7147      2.00000
    109       3.7405      2.00000
    110       3.7489      2.00000
    111       3.7885      2.00000
    112       3.9651      2.00000
    113       4.0254      2.00000
    114       4.0654      2.00000
    115       4.0837      2.00000
    116       4.2546      2.00000
    117       4.2808      2.00000
    118       4.2967      2.00000
    119       4.3346      2.00000
    120       4.3530      2.00000
    121       4.4007      2.00000
    122       4.4908      2.00000
    123       4.5681      2.00000
    124       4.8026      2.00000
    125       4.8504      2.00000
    126       4.8952      2.00000
    127       5.3038      2.00000
    128       5.3471      2.00000
    129       6.4621      0.00000
    130       6.4786      0.00000
    131       6.5054      0.00000
    132       6.8905      0.00000
    133       6.9279      0.00000
    134       6.9596      0.00000
    135       7.1104      0.00000
    136       7.3695      0.00000
    137       7.3939      0.00000
    138       7.4179      0.00000
    139       7.4923      0.00000
    140       7.5251      0.00000
    141       7.5649      0.00000
    142       7.6298      0.00000
    143       7.6583      0.00000
    144       7.6909      0.00000
    145       7.7057      0.00000
    146       7.7380      0.00000
    147       7.7670      0.00000
    148       7.8930      0.00000
    149       7.9266      0.00000
    150       7.9924      0.00000
    151       8.0504      0.00000
    152       8.1544      0.00000
    153       8.3466      0.00000
    154       8.4373      0.00000
    155       8.9833      0.00000
    156       9.0275      0.00000
    157       9.0526      0.00000
    158       9.0820      0.00000
    159       9.2211      0.00000
    160       9.2883      0.00000
    161       9.7806      0.00000


--------------------------------------------------------------------------------------------------------


 soft charge-density along one line, spin component           1
         0         1         2         3         4         5         6         7         8         9
 total charge-density along one line
 
 pseudopotential strength for first ion, spin component:           1
 18.450  25.741   0.000  -0.002  -0.000   0.000  -0.003  -0.001
 25.741  35.918   0.000  -0.002  -0.000   0.000  -0.004  -0.001
  0.000   0.000   4.182  -0.000   0.000   7.794  -0.000   0.000
 -0.002  -0.002  -0.000   4.182   0.000  -0.000   7.793   0.000
 -0.000  -0.000   0.000   0.000   4.182   0.000   0.000   7.793
  0.000   0.000   7.794  -0.000   0.000  14.534  -0.001   0.000
 -0.003  -0.004  -0.000   7.793   0.000  -0.001  14.534   0.001
 -0.001  -0.001   0.000   0.000   7.793   0.000   0.001  14.534
 total augmentation occupancy for first ion, spin component:           1
  5.777  -2.192   0.110   0.019  -0.207  -0.038  -0.008   0.074
 -2.192   0.944  -0.067  -0.025   0.099   0.019   0.007  -0.034
  0.110  -0.067   3.183  -0.163  -0.101  -0.760   0.048   0.031
  0.019  -0.025  -0.163   3.192   0.030   0.049  -0.764  -0.011
 -0.207   0.099  -0.101   0.030   3.243   0.032  -0.011  -0.783
 -0.038   0.019  -0.760   0.049   0.032   0.189  -0.014  -0.009
 -0.008   0.007   0.048  -0.764  -0.011  -0.014   0.190   0.004
  0.074  -0.034   0.031  -0.011  -0.783  -0.009   0.004   0.197


------------------------ aborting loop because EDIFF is reached ----------------------------------------


    CHARGE:  cpu time      3.7831: real time      3.7913
    FORLOC:  cpu time      0.0387: real time      0.0388
    FORNL :  cpu time     12.8344: real time     12.8623
    STRESS:  cpu time     29.4373: real time     29.5030
    FORCOR:  cpu time      0.2462: real time      0.2468
    FORHAR:  cpu time      0.1083: real time      0.1085
    MIXING:  cpu time      0.1287: real time      0.1289
    OFIELD:  cpu time      0.0000: real time      0.0000

  FORCE on cell =-STRESS in cart. coord.  units (eV):
  Direction    XX          YY          ZZ          XY          YZ          ZX
  --------------------------------------------------------------------------------------
  Alpha Z   104.72581   104.72581   104.72581
  Ewald   -2413.12187 -2415.99665 -2412.64712   -17.16959    -3.80793    -8.46458
  Hartree   163.53419   163.08475   164.49953    -1.85081    -0.61118    -0.31998
  E(xc)    -807.35369  -807.32379  -807.35843     0.14594     0.01576     0.08566
  Local    -954.64413  -951.47194  -956.23018    17.79699     4.48650     7.96765
  n-local  2481.19778  2480.49889  2481.12687    -3.57833    -0.51652    -2.04687
  augment  -372.00131  -371.96570  -372.00206     0.14583     0.03065     0.08373
  Kinetic  1793.67490  1793.95188  1793.82261     2.34489     0.66751     1.06578
  Fock        0.00000     0.00000     0.00000     0.00000     0.00000     0.00000
  -------------------------------------------------------------------------------------
  Total      -3.98832    -4.49674    -4.06296    -2.16508     0.26479    -1.62860
  in kB      -4.85333    -5.47202    -4.94416    -2.63465     0.32222    -1.98182
  external pressure =       -5.09 kB  Pullay stress =        0.00 kB


 VOLUME and BASIS-vectors are now :
 -----------------------------------------------------------------------------
  energy-cutoff  :      250.00
  volume of cell :     1316.62
      direct lattice vectors                 reciprocal lattice vectors
    10.960448710  0.000000000  0.000000000     0.091237141  0.000016867  0.000016779
    -0.002026270 10.960243900  0.000000000     0.000000000  0.091238846 -0.000005697
    -0.002015720  0.000684410 10.960040640     0.000000000  0.000000000  0.091240538

  length of vectors
    10.960448710 10.960244087 10.960040847     0.091237144  0.091238846  0.091240538


 FORCES acting on ions
    electron-ion (+dipol)            ewald-force                    non-local-force                 convergence-correction
 -----------------------------------------------------------------------------------------------
   -.637E+01 0.230E+00 0.116E+00   0.570E+01 -.715E-01 0.106E+00   0.154E+01 -.385E+00 0.214E+00   0.322E-02 0.187E-02 -.223E-02
   0.234E+01 -.176E+01 -.804E+00   -.211E+01 0.146E+01 0.910E+00   -.736E+00 -.506E+00 0.150E-01   -.389E-03 -.960E-03 0.339E-03
   0.581E+00 0.875E-01 -.199E+01   -.648E+00 0.331E+00 0.160E+01   0.197E+00 -.638E+00 0.340E+00   -.258E-02 0.645E-03 -.506E-02
   -.233E+01 0.580E+00 0.919E+00   0.239E+01 -.314E+00 -.965E+00   -.281E+00 -.910E+00 -.553E+00   0.302E-03 -.128E-02 0.141E-03
   0.327E+01 -.374E+01 0.384E+01   -.284E+01 0.365E+01 -.331E+01   -.998E+00 0.979E+00 -.645E+00   0.496E-03 -.679E-03 -.140E-02
   -.300E+01 -.101E+01 0.777E+00   0.271E+01 0.133E+01 -.767E+00   0.486E+00 0.430E+00 -.306E+00   -.772E-03 -.409E-03 -.150E-02
   0.172E+01 -.537E+01 -.160E+01   -.177E+01 0.505E+01 0.166E+01   -.119E+00 0.789E+00 0.298E+00   -.142E-02 0.239E-02 -.688E-03
   -.107E+01 -.340E+01 -.393E+01   0.115E+01 0.297E+01 0.355E+01   -.440E+00 0.279E+00 0.136E+01   -.676E-04 0.991E-03 0.219E-03
   -.103E+01 -.443E+01 -.258E+01   0.975E+00 0.415E+01 0.229E+01   -.213E+00 0.121E+01 0.122E+01   -.316E-02 -.133E-03 0.227E-02
   -.706E-01 -.250E+01 0.129E+01   0.117E+00 0.271E+01 -.107E+01   0.325E+00 0.958E-02 -.721E+00   -.716E-03 0.226E-02 -.797E-03
   0.110E+01 0.306E+00 0.107E+01   -.934E+00 -.212E-01 -.103E+01   -.275E+00 -.250E+00 -.161E+00   0.129E-02 -.298E-02 0.359E-02
   0.152E+01 0.827E+00 0.481E+00   -.110E+01 -.704E+00 -.301E+00   -.633E+00 -.329E+00 -.113E+00   -.265E-02 -.463E-03 0.204E-02
   0.616E+00 -.113E+01 0.964E+00   -.473E+00 0.116E+01 -.953E+00   -.808E-01 -.510E+00 -.435E+00   -.170E-02 0.598E-03 0.464E-03
   0.406E+00 -.704E+01 0.360E+01   -.527E+00 0.631E+01 -.328E+01   -.583E+00 0.147E+01 -.685E+00   0.258E-04 0.222E-03 0.216E-02
   0.126E+01 0.450E+00 -.267E+01   -.140E+01 -.225E+00 0.241E+01   0.990E-01 -.633E+00 0.670E+00   0.111E-02 -.164E-02 0.181E-02
   -.267E+01 0.142E+00 -.220E+01   0.223E+01 0.134E+00 0.192E+01   0.704E+00 0.576E+00 0.238E+00   0.134E-02 -.782E-03 -.818E-03
   -.561E+00 0.205E+01 -.679E+01   0.563E+00 -.229E+01 0.632E+01   0.319E+00 -.348E+00 0.128E+01   0.129E-02 0.508E-04 -.186E-02
   -.982E+00 -.122E+01 0.307E+00   0.934E+00 0.790E+00 -.114E+00   0.922E-01 0.625E+00 -.602E+00   0.129E-02 0.361E-02 0.461E-03
   -.118E+01 -.130E+01 -.318E+01   0.120E+01 0.103E+01 0.295E+01   0.423E+00 0.852E+00 0.555E+00   -.122E-02 -.943E-04 0.838E-03
   -.165E+01 0.143E+01 0.176E+01   0.173E+01 -.169E+01 -.147E+01   -.337E+00 0.913E+00 -.376E+00   0.200E-02 -.245E-02 0.282E-02
   0.359E+01 0.487E+01 -.170E+01   -.310E+01 -.445E+01 0.157E+01   -.136E+01 -.995E+00 0.748E-01   0.280E-02 0.804E-04 -.104E-02
   0.117E+00 0.132E+01 -.330E+01   -.214E+00 -.111E+01 0.291E+01   0.629E+00 -.828E+00 0.853E+00   -.263E-02 -.805E-03 -.687E-02
   0.414E+01 0.415E+01 -.187E+01   -.367E+01 -.394E+01 0.175E+01   -.117E+01 -.665E+00 0.407E+00   -.208E-02 -.123E-02 -.775E-03
   -.346E+01 0.355E+01 0.296E+01   0.317E+01 -.352E+01 -.248E+01   0.763E+00 -.105E+01 -.116E+01   -.820E-04 -.109E-02 -.518E-03
   -.639E+01 0.350E+01 0.518E+01   0.588E+01 -.316E+01 -.493E+01   0.122E+01 -.183E+00 -.788E+00   0.111E-03 -.460E-03 -.449E-03
   -.315E+01 0.547E+01 0.134E+00   0.316E+01 -.498E+01 -.272E+00   0.298E+00 -.370E+00 0.304E+00   -.114E-02 -.111E-02 0.167E-02
   -.438E+01 0.341E+01 0.226E+01   0.419E+01 -.336E+01 -.218E+01   0.675E+00 -.636E+00 0.253E+00   0.862E-03 -.772E-03 0.157E-02
   0.320E+01 -.440E+00 -.196E+01   -.237E+01 0.459E+00 0.175E+01   -.194E+01 0.524E+00 0.968E+00   0.841E-03 0.306E-03 0.185E-02
   -.812E+01 0.422E+01 0.876E+01   0.757E+01 -.423E+01 -.807E+01   0.123E+01 -.804E+00 -.200E+01   -.350E-03 -.158E-03 0.280E-03
   0.230E+01 0.350E+01 -.164E+01   -.217E+01 -.350E+01 0.132E+01   -.939E+00 -.769E+00 0.680E+00   -.836E-03 0.268E-03 0.392E-02
   -.108E+01 0.203E+01 0.525E+01   0.107E+01 -.236E+01 -.467E+01   0.653E-01 0.711E+00 -.124E+01   0.104E-02 -.466E-04 -.176E-03
   -.222E+01 -.374E+01 -.294E+01   0.208E+01 0.318E+01 0.258E+01   0.296E+00 0.124E+01 0.927E+00   0.109E-02 0.679E-03 0.103E-02
   0.570E+00 -.299E+01 0.142E+00   -.647E+00 0.272E+01 0.174E-01   -.143E+00 0.113E+01 0.305E-01   -.275E-02 -.116E-02 -.313E-02
   0.272E+01 -.733E+01 -.171E+01   -.240E+01 0.667E+01 0.162E+01   -.339E+00 0.139E+01 0.285E+00   0.610E-03 0.271E-03 -.183E-02
   0.140E+01 -.466E+01 0.106E+01   -.138E+01 0.424E+01 -.931E+00   -.470E+00 0.133E+01 0.168E+00   0.117E-02 0.210E-02 0.486E-03
   0.203E+01 -.442E+00 -.168E+01   -.184E+01 0.672E+00 0.166E+01   -.398E+00 -.112E+01 -.454E+00   -.923E-03 0.239E-02 -.904E-03
   0.446E+01 -.143E+01 -.185E+01   -.415E+01 0.164E+01 0.147E+01   -.494E+00 -.367E+00 0.435E+00   -.509E-03 0.104E-02 -.414E-02
   -.455E+01 0.316E+00 0.366E+01   0.428E+01 -.820E-01 -.311E+01   0.777E+00 0.110E+00 -.119E+01   -.411E-03 -.191E-02 -.143E-03
   -.155E+01 -.338E+01 0.191E+01   0.186E+01 0.324E+01 -.170E+01   0.192E+00 0.519E+00 -.393E+00   0.579E-03 0.273E-02 0.165E-02
   0.271E+01 -.305E+01 -.493E+01   -.235E+01 0.315E+01 0.443E+01   -.505E+00 0.530E+00 0.148E+01   0.243E-02 0.436E-03 0.505E-03
   -.140E-01 -.281E+01 0.570E+00   -.116E+00 0.263E+01 -.445E+00   0.745E+00 0.114E+01 0.166E+00   0.467E-04 0.853E-03 0.461E-02
   -.135E+01 -.182E+01 -.975E+00   0.843E+00 0.164E+01 0.756E+00   -.609E-01 0.358E+00 0.378E+00   0.670E-03 0.683E-03 0.136E-02
   0.189E+01 0.178E+00 0.243E+01   -.185E+01 0.283E+00 -.210E+01   -.689E-01 -.942E+00 -.116E+00   0.512E-03 -.191E-03 0.539E-03
   -.124E+01 -.233E+01 -.870E+00   0.961E+00 0.244E+01 0.605E+00   0.117E+01 0.245E+00 0.216E+00   0.112E-03 0.850E-03 0.163E-02
   0.200E+01 -.201E+01 0.326E+01   -.202E+01 0.209E+01 -.309E+01   -.171E+00 -.445E+00 -.443E+00   0.164E-02 0.827E-03 0.100E-02
   -.476E+00 0.503E+01 0.230E+01   0.602E+00 -.428E+01 -.213E+01   0.469E+00 -.162E+01 -.576E+00   -.182E-02 -.508E-03 0.110E-02
   -.278E+01 -.220E+01 0.159E+01   0.237E+01 0.217E+01 -.130E+01   0.627E+00 0.268E+00 -.115E+01   0.114E-02 0.579E-03 -.212E-02
   0.152E+01 -.378E+01 -.879E+00   -.187E+01 0.359E+01 0.966E+00   -.121E+00 0.644E+00 0.464E+00   0.243E-03 0.127E-02 -.216E-02
   -.531E+01 0.269E+01 -.911E-01   0.493E+01 -.237E+01 -.259E-01   0.125E+01 -.959E+00 0.610E+00   -.128E-03 -.314E-03 -.159E-02
   0.931E+00 0.239E+01 -.252E+01   -.107E+01 -.231E+01 0.268E+01   -.585E+00 0.616E-01 0.516E+00   -.253E-02 0.215E-03 -.237E-02
   -.501E+00 -.278E+01 0.249E+01   0.500E+00 0.211E+01 -.247E+01   -.169E+00 0.120E+01 0.226E+00   -.202E-02 -.116E-02 0.172E-02
   0.255E+01 -.186E+01 0.149E+01   -.236E+01 0.128E+01 -.125E+01   -.149E+00 0.121E+01 -.128E+00   -.906E-03 -.161E-02 -.221E-02
   0.379E+00 0.431E+01 0.264E+01   -.515E+00 -.414E+01 -.247E+01   0.122E+00 -.676E+00 -.109E+01   -.908E-03 -.129E-02 -.186E-02
   -.598E+01 0.476E+01 -.193E+01   0.571E+01 -.439E+01 0.155E+01   0.122E+01 -.143E+01 -.853E-01   -.263E-03 0.138E-02 -.373E-02
   -.476E-01 0.225E+01 0.315E+01   0.428E+00 -.238E+01 -.300E+01   -.261E+00 -.136E+00 -.150E+00   0.714E-03 -.570E-03 0.242E-02
   0.277E+01 0.242E+01 0.909E+00   -.270E+01 -.230E+01 -.822E+00   -.749E+00 -.551E+00 -.547E+00   0.188E-02 -.217E-02 0.186E-02
   0.374E+01 0.395E+01 -.637E+00   -.354E+01 -.345E+01 0.583E+00   -.139E+00 -.117E+01 -.333E+00   0.164E-02 -.272E-03 0.212E-02
   -.221E+01 -.124E+00 0.706E+00   0.178E+01 -.445E-01 -.560E+00   0.101E+01 0.284E+00 -.602E-01   0.141E-02 -.683E-03 0.302E-02
   0.917E+01 0.723E+00 -.309E+01   -.860E+01 -.790E+00 0.268E+01   -.179E+01 -.661E-01 0.408E+00   -.987E-03 -.163E-02 -.532E-03
   0.527E+01 0.875E+01 0.281E+01   -.472E+01 -.794E+01 -.247E+01   -.101E+01 -.172E+01 -.121E+01   0.376E-03 0.788E-03 0.213E-02
   0.687E+01 0.211E+01 -.367E+01   -.665E+01 -.209E+01 0.310E+01   -.799E+00 -.256E+00 0.148E+01   0.180E-02 -.994E-03 0.182E-02
   0.201E+01 -.194E+01 -.286E+01   -.170E+01 0.193E+01 0.232E+01   -.674E+00 -.599E-01 0.115E+00   -.911E-03 0.966E-03 -.756E-03
   -.208E-01 0.462E+00 -.346E+01   0.464E-01 -.798E+00 0.357E+01   0.754E+00 0.420E+00 -.215E+00   0.605E-03 -.748E-03 -.354E-02
   -.332E+01 -.545E+00 -.495E+00   0.269E+01 0.880E-01 0.154E+00   0.142E+01 0.935E+00 0.340E+00   -.247E-02 0.817E-03 -.122E-02
 -----------------------------------------------------------------------------------------------
   0.776E-01 -.739E-01 -.603E-01   -.147E-12 0.342E-13 -.373E-13   -.856E-01 0.778E-01 0.493E-01   -.266E-02 -.536E-03 -.971E-03
 
 
 POSITION                                       TOTAL-FORCE (eV/Angst)
 -----------------------------------------------------------------------------------
     10.89147     10.92252     10.89562         0.873537     -0.224496      0.433991
      2.79476      2.79267     10.95104        -0.502172     -0.807389      0.121888
      2.70398      0.04195      2.76750         0.127409     -0.218765     -0.062708
      0.06224      2.73599      2.80021        -0.219871     -0.645570     -0.599637
      1.40653      1.30054      1.31332        -0.568285      0.883343     -0.121009
      4.16362      4.05062      1.38770         0.190363      0.741249     -0.297207
      4.09564      1.36274      4.11203        -0.175291      0.467969      0.354360
      1.41710      4.15562      4.08009        -0.356571     -0.151009      0.981219
     10.95084     10.90244      5.46958        -0.268955      0.928333      0.937478
      2.69558      2.73132      5.56180         0.371435      0.223139     -0.509973
      2.72465     10.95982      8.21528        -0.102360      0.031738     -0.127233
     10.86517      2.75301      8.27341        -0.213877     -0.206353      0.069408
      1.28446      1.40564      6.92393         0.060561     -0.484273     -0.423085
      4.16315      4.09308      6.88120        -0.703268      0.744733     -0.365705
      4.09156      1.36871      9.57781        -0.042082     -0.409935      0.404170
      1.31846      4.05254      9.60271         0.263413      0.850099     -0.040129
     10.91953      5.51842     10.92301         0.322193     -0.594414      0.808845
      2.73457      8.23618      0.03559         0.045870      0.203992     -0.408564
      2.77876      5.43659      2.68839         0.441691      0.580236      0.325037
      0.06050      8.17755      2.77839        -0.256937      0.658188     -0.090580
      1.44644      6.86848      1.37207        -0.862859     -0.572776     -0.054886
      4.03205      9.67491      1.35270         0.529966     -0.615829      0.453692
      4.19052      6.88878      4.06364        -0.707822     -0.459783      0.278070
      1.36708      9.65160      4.17556         0.471847     -1.012959     -0.685923
     10.90597      5.49101      5.52505         0.715317      0.155428     -0.538545
      2.76228      8.23194      5.48018         0.303245      0.120216      0.167582
      2.66808      5.49921      8.20470         0.483056     -0.583195      0.331433
      0.04255      8.16671      8.17968        -1.107317      0.542622      0.762175
      1.33974      6.89572      6.88195         0.679485     -0.808466     -1.305538
      4.19201      9.65511      6.84351        -0.808314     -0.763279      0.367741
      4.05027      6.83237      9.63901         0.059909      0.383779     -0.667713
      1.35483      9.50323      9.53036         0.158119      0.681592      0.569670
      5.47204     10.90245     10.94407        -0.222046      0.854966      0.186748
      8.15692      2.66615      0.02655        -0.013649      0.731292      0.193948
      8.22953     10.92028      2.71583        -0.448956      0.914478      0.299919
      5.50636      2.79239      2.82922        -0.210699     -0.891443     -0.467959
      6.79833      1.34828      1.40804        -0.188761     -0.154104      0.053624
      9.57666      4.02050      1.40498         0.510407      0.341937     -0.639172
      9.58519      1.29943      4.11539         0.503908      0.388221     -0.188267
      6.93544      4.09803      4.07326        -0.148071      0.627970      0.982234
      5.46624     10.90347      5.39753         0.616168      0.968170      0.295715
      8.31093      2.73766      5.47003        -0.567132      0.172284      0.160569
      8.16898      0.06291      8.20066        -0.026224     -0.481261      0.217250
      5.41875      2.67743      8.21066         0.884399      0.360883     -0.047127
      6.83186      1.41624      6.79055        -0.189233     -0.367991     -0.269734
      9.54385      4.19204      6.90344         0.593445     -0.865304     -0.405916
      9.50515      1.34098      9.66970         0.212469      0.232105     -0.861678
      6.88784      4.06542      9.50174        -0.471309      0.455552      0.549232
      5.45943      5.51588     10.92202         0.862721     -0.640540      0.492106
      8.29385      8.25211     10.93988        -0.726199      0.142457      0.673733
      8.26155      5.44122      2.69336        -0.172213      0.531028      0.241537
      5.49679      8.26052      2.69994         0.043880      0.628550      0.108695
      6.88622      6.90112      1.40893        -0.014607     -0.508751     -0.932883
      9.58087      9.63510      1.41841         0.950793     -1.060105     -0.475588
      9.57022      6.86284      4.11126         0.120055     -0.260379      0.000608
      6.92362      9.61288      4.12067        -0.678368     -0.432656     -0.458028
      5.53441      5.54490      5.50810         0.066434     -0.669819     -0.384297
      8.24325      8.27264      5.48005         0.574092      0.115132      0.088582
      8.27337      5.55853      8.21467        -1.223511     -0.134778      0.004844
      5.49262      8.27748      8.30861        -0.466012     -0.896537     -0.859440
      6.90766      6.94433      6.81147        -0.576696     -0.236865      0.908960
      9.62315      9.60884      6.92827        -0.364253     -0.064721     -0.426347
      9.56318      6.87881      9.58713         0.780237      0.083393     -0.108349
      6.83956      9.57109      9.61390         0.787491      0.478672     -0.001841
 -----------------------------------------------------------------------------------
    total drift:                               -0.010662      0.003427     -0.011937


--------------------------------------------------------------------------------------------------------



  FREE ENERGIE OF THE ION-ELECTRON SYSTEM (eV)
  ---------------------------------------------------
  free  energy   TOTEN  =      -344.80110750 eV

  energy  without entropy=     -344.80110750  energy(sigma->0) =     -344.80110750
 


--------------------------------------------------------------------------------------------------------


    POTLOK:  cpu time      0.4607: real time      0.4617


--------------------------------------------------------------------------------------------------------


 writing wavefunctions
     LOOP+:  cpu time    375.8447: real time    378.7588
    4ORBIT:  cpu time      0.0000: real time      0.0000

 total amount of memory used by VASP MPI-rank0    37807. kBytes
=======================================================================

   base      :      30000. kBytes
   nonlr-proj:       1178. kBytes
   fftplans  :        841. kBytes
   grid      :       1174. kBytes
   one-center:          9. kBytes
   wavefun   :       4605. kBytes
 
  
  
 General timing and accounting informations for this job:
 ========================================================
  
                  Total CPU time used (sec):      414.844
                            User time (sec):      414.653
                          System time (sec):        0.191
                         Elapsed time (sec):      420.785
  
                   Maximum memory used (kb):      219784.
                   Average memory used (kb):          N/A
  
                          Minor page faults:        19405
                          Major page faults:         8638
                 Voluntary context switches:         6086
