 vasp.6.4.2 20Jul23 (build Jun 27 2024 19:57:08) complex                        
  
 executed on                 T2A5 date 2026.01.13  21:46:38
 running   28 mpi-ranks, with    1 threads/rank, on    1 nodes
 distrk:  each k-point on   28 cores,    1 groups
 distr:  one band on NCORE=  28 cores,    1 groups


--------------------------------------------------------------------------------------------------------


 INCAR:
   ISTART = 1
   ICHARG = 1
   LWAVE = .T.
   LCHARG = .T.
   ENCUT = 250
   PREC = Normal
   ADDGRID = .F.
   EDIFF = 1E-4
   LREAL = Auto
   ALGO = Fast
   NSW = 0
   IBRION = -1
   ISMEAR = 0
   SIGMA = 0.1
   NPAR = 1
   KPAR = 1
   SYMPREC = 1E-4

 POTCAR:    PAW_PBE Si 05Jan2001                  
 POTCAR:    PAW_PBE Si 05Jan2001                  
   SHA256 =  79d9987ad8750f624c4d6acb2a16d13abf6a777132adc04dc6c8399be72b42bb Si/POTCAR             
   COPYR  = (c) Copyright 05Jan2001 Georg Kresse                                                    
   COPYR  = This file is part of the software VASP. Any use, copying, and all other rights are regul
   COPYR  = If you do not have a valid VASP license, you may not use, copy or distribute this file. 
   VRHFIN =Si: s2p2                                                                                 
   LEXCH  = PE                                                                                      
   EATOM  =   103.0669 eV,    7.5752 Ry                                                             
                                                                                                    
   TITEL  = PAW_PBE Si 05Jan2001                                                                    
   LULTRA =        F    use ultrasoft PP ?                                                          
   IUNSCR =        1    unscreen: 0-lin 1-nonlin 2-no                                               
   RPACOR =    1.500    partial core radius                                                         
   POMASS =   28.085; ZVAL   =    4.000    mass and valenz                                          
   RCORE  =    1.900    outmost cutoff radius                                                       
   RWIGS  =    2.480; RWIGS  =    1.312    wigner-seitz radius (au A)                               
   ENMAX  =  245.345; ENMIN  =  184.009 eV                                                          
   ICORE  =        2    local potential                                                             
   LCOR   =        T    correct aug charges                                                         
   LPAW   =        T    paw PP                                                                      
   EAUG   =  322.069                                                                                
   DEXC   =    0.000                                                                                
   RMAX   =    1.950    core radius for proj-oper                                                   
   RAUG   =    1.300    factor for augmentation sphere                                              
   RDEP   =    1.993    radius for radial grids                                                     
   RDEPT  =    1.837    core radius for aug-charge                                                  
                                                                                                    
   Atomic configuration                                                                             
    6 entries                                                                                       
     n  l   j            E        occ.                                                              
     1  0  0.50     -1785.8828   2.0000                                                             
     2  0  0.50      -139.4969   2.0000                                                             
     2  1  1.50       -95.5546   6.0000                                                             
     3  0  0.50       -10.8127   2.0000                                                             
     3  1  0.50        -4.0811   2.0000                                                             
     3  2  1.50        -4.0817   0.0000                                                             
   Description                                                                                      
     l       E           TYP  RCUT    TYP  RCUT                                                     
     0    -10.8127223     23  1.900                                                                 
     0     -7.6451159     23  1.900                                                                 
     1     -4.0811372     23  1.900                                                                 
     1      2.4879257     23  1.900                                                                 
     2     -4.0817478      7  1.900                                                                 
  local pseudopotential read in
  partial core-charges read in
  partial kinetic energy density read in
  atomic valenz-charges read in
  non local Contribution for L=           0  read in
    real space projection operators read in
  non local Contribution for L=           0  read in
    real space projection operators read in
  non local Contribution for L=           1  read in
    real space projection operators read in
  non local Contribution for L=           1  read in
    real space projection operators read in
    PAW grid and wavefunctions read in
 
   number of l-projection  operators is LMAX  =           4
   number of lm-projection operators is LMMAX =           8
 
 Optimization of the real space projectors (new method)

 maximal supplied QI-value         = 19.84
 optimisation between [QCUT,QGAM] = [  7.94, 16.07] = [ 17.64, 72.34] Ry 
 Optimized for a Real-space Cutoff    1.55 Angstroem

   l    n(q)    QCUT    max X(q) W(low)/X(q) W(high)/X(q)  e(spline) 
   0      7     7.937   159.560    0.97E-04    0.31E-03    0.13E-06
   0      7     7.937   115.863    0.95E-04    0.31E-03    0.13E-06
   1      7     7.937    88.339    0.40E-03    0.66E-03    0.12E-06
   1      7     7.937    48.592    0.39E-03    0.64E-03    0.12E-06
  PAW_PBE Si 05Jan2001                  :
 energy of atom  1       EATOM= -103.0669
 kinetic energy error for atom=    0.0052 (will be added to EATOM!!)
 
 
 POSCAR: Si
  positions in cartesian coordinates
  No initial velocities read in
 exchange correlation table for  LEXCH =        8
   RHO(1)=    0.500       N(1)  =     2000
   RHO(2)=  100.500       N(2)  =     4000
 


--------------------------------------------------------------------------------------------------------


 ion  position               nearest neighbor table
   1  0.003  0.999  0.997-   5 2.32  32 2.34  54 2.36  47 2.38
   2  0.254  0.254  0.001-  16 2.34   5 2.37  15 2.39   6 2.42
   3  0.246  0.010  0.252-   5 2.34   7 2.38  22 2.39  24 2.41
   4  0.011  0.248  0.251-   5 2.31  38 2.33  39 2.35   8 2.35
   5  0.123  0.126  0.119-   4 2.31   1 2.32   3 2.34   2 2.37
   6  0.390  0.376  0.126-  36 2.37  49 2.37  19 2.41   2 2.42
   7  0.366  0.135  0.386-  10 2.36  41 2.37  36 2.38   3 2.38
   8  0.133  0.375  0.376-  10 2.34   4 2.35  25 2.36  19 2.38
   9  0.004  0.000  0.509-  62 2.36  24 2.37  39 2.39  13 2.40
  10  0.246  0.258  0.516-  13 2.33  14 2.34   8 2.34   7 2.36
  11  0.246  0.001  0.748-  32 2.30  13 2.35  15 2.35  30 2.36
  12  0.991  0.253  0.766-  16 2.34  13 2.35  46 2.39  47 2.42
  13  0.119  0.137  0.638-  10 2.33  12 2.35  11 2.35   9 2.40
  14  0.379  0.385  0.626-  10 2.34  44 2.35  27 2.35  57 2.37
  15  0.374  0.125  0.871-  11 2.35  33 2.38   2 2.39  44 2.40
  16  0.123  0.376  0.882-  17 2.32  12 2.34   2 2.34  27 2.39
  17  0.002  0.496  0.009-  16 2.32  38 2.33  21 2.35  63 2.36
  18  0.249  0.751  0.005-  21 2.38  32 2.38  31 2.41  22 2.41
  19  0.262  0.503  0.254-  21 2.37   8 2.38  23 2.38   6 2.41
  20  0.011  0.747  0.259-  55 2.29  21 2.32  54 2.36  24 2.38
  21  0.127  0.622  0.132-  20 2.32  17 2.35  19 2.37  18 2.38
  22  0.375  0.881  0.132-  33 2.33  52 2.36   3 2.39  18 2.41
  23  0.391  0.632  0.375-  52 2.30  26 2.31  57 2.32  19 2.38
  24  0.133  0.876  0.386-   9 2.37  26 2.37  20 2.38   3 2.41
  25  0.004  0.500  0.496-  55 2.34   8 2.36  46 2.38  29 2.40
  26  0.269  0.751  0.500-  23 2.31  30 2.35  29 2.37  24 2.37
  27  0.248  0.501  0.752-  29 2.35  14 2.35  31 2.36  16 2.39
  28  0.006  0.750  0.747-  32 2.37  29 2.39  62 2.40  63 2.50
  29  0.135  0.627  0.619-  27 2.35  26 2.37  28 2.39  25 2.40
  30  0.381  0.882  0.629-  26 2.35  41 2.35  11 2.36  60 2.36
  31  0.376  0.622  0.879-  49 2.32  60 2.35  27 2.36  18 2.41
  32  0.129  0.877  0.873-  11 2.30   1 2.34  28 2.37  18 2.38
  33  0.496  0.002  0.004-  22 2.33  64 2.35  37 2.36  15 2.38
  34  0.739  0.254  0.010-  48 2.33  37 2.36  38 2.37  47 2.39
  35  0.760  0.003  0.248-  54 2.34  56 2.37  39 2.38  37 2.41
  36  0.504  0.255  0.267-  37 2.36  40 2.37   6 2.37   7 2.38
  37  0.616  0.126  0.134-  33 2.36  34 2.36  36 2.36  35 2.41
  38  0.881  0.367  0.129-  17 2.33   4 2.33  34 2.37  51 2.38
  39  0.884  0.129  0.377-  42 2.33   4 2.35  35 2.38   9 2.39
  40  0.637  0.382  0.381-  42 2.35  36 2.37  57 2.38  51 2.39
  41  0.500  0.003  0.495-  30 2.35   7 2.37  45 2.39  56 2.40
  42  0.762  0.253  0.501-  39 2.33  45 2.34  40 2.35  46 2.36
  43  0.739  0.005  0.745-  62 2.29  45 2.29  47 2.37  64 2.38
  44  0.501  0.254  0.746-  14 2.35  48 2.37  45 2.39  15 2.40
  45  0.629  0.131  0.617-  43 2.29  42 2.34  41 2.39  44 2.39
  46  0.878  0.383  0.630-  42 2.36  25 2.38  59 2.39  12 2.39
  47  0.860  0.120  0.885-  43 2.37   1 2.38  34 2.39  12 2.42
  48  0.626  0.376  0.875-  49 2.29  34 2.33  59 2.34  44 2.37
  49  0.508  0.503  0.994-  48 2.29  31 2.32  53 2.34   6 2.37
  50  0.761  0.756  0.006-  63 2.32  53 2.35  54 2.37  64 2.42
  51  0.758  0.505  0.246-  55 2.37  38 2.38  53 2.39  40 2.39
  52  0.506  0.750  0.244-  23 2.30  53 2.33  22 2.36  56 2.41
  53  0.629  0.628  0.119-  52 2.33  49 2.34  50 2.35  51 2.39
  54  0.890  0.875  0.134-  35 2.34   1 2.36  20 2.36  50 2.37
  55  0.881  0.629  0.376-  20 2.29  25 2.34  51 2.37  58 2.38
  56  0.633  0.878  0.372-  35 2.37  58 2.38  41 2.40  52 2.41
  57  0.509  0.510  0.504-  61 2.32  23 2.32  14 2.37  40 2.38
  58  0.758  0.756  0.503-  61 2.35  62 2.37  55 2.38  56 2.38
  59  0.746  0.507  0.754-  48 2.34  63 2.39  46 2.39  61 2.41
  60  0.498  0.754  0.759-  31 2.35  30 2.36  64 2.36  61 2.36
  61  0.625  0.640  0.626-  57 2.32  58 2.35  60 2.36  59 2.41
  62  0.872  0.885  0.637-  43 2.29   9 2.36  58 2.37  28 2.40
  63  0.877  0.623  0.887-  50 2.32  17 2.36  59 2.39  28 2.50
  64  0.625  0.880  0.882-  33 2.35  60 2.36  43 2.38  50 2.42
 
  LATTYP: Found a base centered monoclinic cell.
 ALAT       =    26.6924568576
 B/A-ratio  =     0.5774776488
 C/A-ratio  =     0.4084454244
 COS(beta)  =    -0.8162441399
  
  Lattice vectors:
  
 A1 = ( -10.8941648100, -10.9010535500,   0.0000000000)
 A2 = ( -10.8933966800,  -0.0043312100, -10.9023850900)
 A3 = (  10.9024118700,   0.0000000000,   0.0000000000)


Analysis of symmetry for initial positions (statically):
=====================================================================
 Subroutine PRICEL returns:
 Original cell was already a primitive cell.
 

 Routine SETGRP: Setting up the symmetry group for a 
 base centered monoclinic supercell.


 Subroutine GETGRP returns: Found  1 space group operations
 (whereof  1 operations were pure point group operations)
 out of a pool of  4 trial point group operations.


The static configuration has the point symmetry C_1 .


Analysis of symmetry for dynamics (positions and initial velocities):
=====================================================================
 Subroutine PRICEL returns:
 Original cell was already a primitive cell.
 

 Routine SETGRP: Setting up the symmetry group for a 
 base centered monoclinic supercell.


 Subroutine GETGRP returns: Found  1 space group operations
 (whereof  1 operations were pure point group operations)
 out of a pool of  4 trial point group operations.


The dynamic configuration has the point symmetry C_1 .


 Subroutine INISYM returns: Found  1 space group operations
 (whereof  1 operations are pure point group operations),
 and found     1 'primitive' translations


----------------------------------------------------------------------------------------

                                     Primitive cell                                     

  volume of cell :    1295.7242

  direct lattice vectors                    reciprocal lattice vectors
    10.902411870  0.000000000  0.000000000     0.091722824  0.000069392  0.000075818
    -0.008247060 10.901053550  0.000000000     0.000000000  0.091734253 -0.000036443
    -0.009015190  0.004331210 10.902385090     0.000000000  0.000000000  0.091723049

  length of vectors
    10.902411870 10.901056670 10.902389678     0.091722881  0.091734260  0.091723049

  position of ions in fractional coordinates (direct lattice)
     0.003390098  0.998811226  0.997107961
     0.253645034  0.253561841  0.000806450
     0.245606900  0.010349228  0.252077202
     0.011270751  0.248391328  0.250763021
     0.123447099  0.126024093  0.118765452
     0.390095672  0.375658381  0.125722600
     0.366330292  0.134708272  0.385503794
     0.133424446  0.374974390  0.375885414
     0.003833250  0.000255628  0.508810491
     0.246166359  0.258012870  0.515992641
     0.245633953  0.001470867  0.747865236
     0.990554884  0.253256638  0.765834548
     0.118702611  0.136677230  0.638008136
     0.379364556  0.384940015  0.626109178
     0.373672053  0.124563502  0.870763539
     0.123361292  0.375855694  0.881554112
     0.002234793  0.496114737  0.009062332
     0.249187381  0.750947804  0.005026553
     0.261886039  0.502566649  0.253976284
     0.011186517  0.746689841  0.259472546
     0.126934397  0.621894213  0.131580406
     0.374707009  0.881205707  0.131814161
     0.390504357  0.631677405  0.375013160
     0.133026155  0.876162959  0.386284083
     0.004299525  0.500323486  0.495724168
     0.268589801  0.750521112  0.500450318
     0.248416591  0.500530083  0.752220305
     0.006126420  0.749628563  0.746760027
     0.135359795  0.627084796  0.619392555
     0.380940061  0.882065255  0.629211022
     0.375825160  0.622018299  0.878703663
     0.129483213  0.877089208  0.872708149
     0.496136683  0.002031155  0.003965197
     0.738987997  0.253948190  0.009501064
     0.760320267  0.003458703  0.247535655
     0.503919625  0.255023246  0.266562736
     0.616416914  0.126200389  0.133678909
     0.881241331  0.367292913  0.129393805
     0.883974275  0.128816917  0.377300281
     0.637033373  0.382430968  0.381395763
     0.499508757  0.002779757  0.495233667
     0.762135063  0.253464501  0.500966057
     0.739117626  0.005415684  0.744757739
     0.500922362  0.253562844  0.745863720
     0.628940850  0.131111975  0.617082176
     0.877604710  0.383241092  0.629884649
     0.859587313  0.119687389  0.885166415
     0.625884545  0.376095177  0.875021843
     0.508483539  0.502539723  0.994218146
     0.760607153  0.755925028  0.005946054
     0.758365141  0.504927505  0.245654685
     0.506136625  0.750337491  0.243973868
     0.628972949  0.628224346  0.119382137
     0.889596040  0.875053620  0.133936680
     0.881477543  0.628976784  0.375641791
     0.633124559  0.878281475  0.371868249
     0.508540491  0.509663380  0.504083032
     0.758297417  0.756108956  0.502749943
     0.746155952  0.506924250  0.754001425
     0.497694384  0.754493877  0.759370768
     0.624560456  0.640214285  0.626085383
     0.872359123  0.884770361  0.636566439
     0.876589542  0.622899476  0.886636631
     0.624681161  0.880271152  0.881954263

  ion indices of the primitive-cell ions
   primitive index   ion index
                 1           1
                 2           2
                 3           3
                 4           4
                 5           5
                 6           6
                 7           7
                 8           8
                 9           9
                10          10
                11          11
                12          12
                13          13
                14          14
                15          15
                16          16
                17          17
                18          18
                19          19
                20          20
                21          21
                22          22
                23          23
                24          24
                25          25
                26          26
                27          27
                28          28
                29          29
                30          30
                31          31
                32          32
                33          33
                34          34
                35          35
                36          36
                37          37
                38          38
                39          39
                40          40
                41          41
                42          42
                43          43
                44          44
                45          45
                46          46
                47          47
                48          48
                49          49
                50          50
                51          51
                52          52
                53          53
                54          54
                55          55
                56          56
                57          57
                58          58
                59          59
                60          60
                61          61
                62          62
                63          63
                64          64

----------------------------------------------------------------------------------------

 
 
 KPOINTS: K-Points                                

Automatic generation of k-mesh.
 Grid dimensions read from file:
 generate k-points for:    2    2    2

 Generating k-lattice:

  Cartesian coordinates                     Fractional coordinates (reciprocal lattice)
     0.045861412  0.000034696  0.000037909     0.500000000 -0.000000000  0.000000000
     0.000000000  0.045867126 -0.000018222     0.000000000  0.500000000  0.000000000
     0.000000000  0.000000000  0.045861524     0.000000000  0.000000000  0.500000000

  Length of vectors
     0.045861441  0.045867130  0.045861524

  Shift w.r.t. Gamma in fractional coordinates (k-lattice)
     0.500000000  0.500000000  0.500000000

 
 Subroutine IBZKPT returns following result:
 ===========================================
 
 Found      4 irreducible k-points:
 
 Following reciprocal coordinates:
            Coordinates               Weight
  0.250000  0.250000  0.250000      2.000000
 -0.250000  0.250000  0.250000      2.000000
  0.250000 -0.250000  0.250000      2.000000
 -0.250000 -0.250000  0.250000      2.000000
 
 Following cartesian coordinates:
            Coordinates               Weight
  0.022931  0.022951  0.022941      2.000000
 -0.022931  0.022916  0.022903      2.000000
  0.022931 -0.022916  0.022959      2.000000
 -0.022931 -0.022951  0.022921      2.000000
 


--------------------------------------------------------------------------------------------------------




 Dimension of arrays:
   k-points           NKPTS =      4   k-points in BZ     NKDIM =      4   number of bands    NBANDS=    161
   number of dos      NEDOS =    301   number of ions     NIONS =     64
   non local maximal  LDIM  =      4   non local SUM 2l+1 LMDIM =      8
   total plane-waves  NPLWV =  74088
   max r-space proj   IRMAX =    944   max aug-charges    IRDMAX=   2111
   dimension x,y,z NGX =    42 NGY =   42 NGZ =   42
   dimension x,y,z NGXF=    84 NGYF=   84 NGZF=   84
   support grid    NGXF=    84 NGYF=   84 NGZF=   84
   ions per type =              64
   NGX,Y,Z   is equivalent  to a cutoff of   6.40,  6.41,  6.40 a.u.
   NGXF,Y,Z  is equivalent  to a cutoff of  12.81, 12.81, 12.81 a.u.

 SYSTEM =  unknown system                          
 POSCAR =  Si                                      

 Startparameter for this run:
   NWRITE =      2    write-flag & timer
   PREC   = normal    normal or accurate (medium, high low for compatibility)
   ISTART =      1    job   : 0-new  1-cont  2-samecut
   ICHARG =      1    charge: 1-file 2-atom 10-const
   ISPIN  =      1    spin polarized calculation?
   LNONCOLLINEAR =      F non collinear calculations
   LSORBIT =      F    spin-orbit coupling
   INIWAV =      1    electr: 0-lowe 1-rand  2-diag
   LASPH  =      F    aspherical Exc in radial PAW
 Electronic Relaxation 1
   ENCUT  =  250.0 eV  18.37 Ry    4.29 a.u.  14.06 14.05 14.06*2*pi/ulx,y,z
   ENINI  =  250.0     initial cutoff
   ENAUG  =  322.1 eV  augmentation charge cutoff
   NELM   =     60;   NELMIN=  2; NELMDL=  0     # of ELM steps 
   EDIFF  = 0.1E-03   stopping-criterion for ELM
   LREAL  =      T    real-space projection
   NLSPLINE    = F    spline interpolate recip. space projectors
   LCOMPAT=      F    compatible to vasp.4.4
   GGA_COMPAT  = T    GGA compatible to vasp.4.4-vasp.4.6
   LMAXPAW     = -100 max onsite density
   LMAXMIX     =    2 max onsite mixed and CHGCAR
   VOSKOWN=      0    Vosko Wilk Nusair interpolation
   ROPT   =   -0.00050
 Ionic relaxation
   EDIFFG = 0.1E-02   stopping-criterion for IOM
   NSW    =      0    number of steps for IOM
   NBLOCK =      1;   KBLOCK =      1    inner block; outer block 
   IBRION =     -1    ionic relax: 0-MD 1-quasi-New 2-CG
   NFREE  =      0    steps in history (QN), initial steepest desc. (CG)
   ISIF   =      2    stress and relaxation
   IWAVPR =     10    prediction:  0-non 1-charg 2-wave 3-comb
   ISYM   =      2    0-nonsym 1-usesym 2-fastsym
   LCORR  =      T    Harris-Foulkes like correction to forces

   POTIM  = 0.5000    time-step for ionic-motion
   TEIN   =    0.0    initial temperature
   TEBEG  =    0.0;   TEEND  =   0.0 temperature during run
   SMASS  =  -3.00    Nose mass-parameter (am)
   estimated Nose-frequenzy (Omega)   =  0.10E-29 period in steps = 0.13E+47 mass=  -0.272E-26a.u.
   SCALEE = 1.0000    scale energy and forces
   NPACO  =    256;   APACO  = 10.0  distance and # of slots for P.C.
   PSTRESS=    0.0 pullay stress

  Mass of Ions in am
   POMASS =  28.09
  Ionic Valenz
   ZVAL   =   4.00
  Atomic Wigner-Seitz radii
   RWIGS  =  -1.00
  virtual crystal weights 
   VCA    =   1.00
   NELECT =     256.0000    total number of electrons
   NUPDOWN=      -1.0000    fix difference up-down

 DOS related values:
   EMIN   =  10.00;   EMAX   =-10.00  energy-range for DOS
   EFERMI =   0.00;   METHOD = LEGACY      
   ISMEAR =     0;   SIGMA  =   0.10  broadening in eV -4-tet -1-fermi 0-gaus

 Electronic relaxation 2 (details)
   IALGO  =     68    algorithm
   LDIAG  =      T    sub-space diagonalisation (order eigenvalues)
   LSUBROT=      F    optimize rotation matrix (better conditioning)
   TURBO    =      0    0=normal 1=particle mesh
   IRESTART =      0    0=no restart 2=restart with 2 vectors
   NREBOOT  =      0    no. of reboots
   NMIN     =      0    reboot dimension
   EREF     =   0.00    reference energy to select bands
   IMIX   =      4    mixing-type and parameters
     AMIX     =   0.40;   BMIX     =  1.00
     AMIX_MAG =   1.60;   BMIX_MAG =  1.00
     AMIN     =   0.10
     WC   =   100.;   INIMIX=   1;  MIXPRE=   1;  MAXMIX= -45

 Intra band minimization:
   WEIMIN = 0.0000     energy-eigenvalue tresh-hold
   EBREAK =  0.16E-06  absolut break condition
   DEPER  =   0.30     relativ break condition  

   TIME   =   0.40     timestep for ELM

  volume/ion in A,a.u.               =      20.25       136.62
  Fermi-wavevector in a.u.,A,eV,Ry     =   0.953493  1.801840 12.369710  0.909148
  Thomas-Fermi vector in A             =   2.082153
 
 Write flags
   LWAVE        =      T    write WAVECAR
   LDOWNSAMPLE  =      F    k-point downsampling of WAVECAR
   LCHARG       =      T    write CHGCAR
   LVTOT        =      F    write LOCPOT, total local potential
   LVHAR        =      F    write LOCPOT, Hartree potential only
   LELF         =      F    write electronic localiz. function (ELF)
   LORBIT       =      0    0 simple, 1 ext, 2 COOP (PROOUT), +10 PAW based schemes


 Dipole corrections
   LMONO  =      F    monopole corrections only (constant potential shift)
   LDIPOL =      F    correct potential (dipole corrections)
   IDIPOL =      0    1-x, 2-y, 3-z, 4-all directions 
   EPSILON=  1.0000000 bulk dielectric constant

 Exchange correlation treatment:
   GGA     =    --    GGA type
   LEXCH   =     8    internal setting for exchange type
   LIBXC   =     F    Libxc                    
   VOSKOWN =     0    Vosko Wilk Nusair interpolation
   LHFCALC =     F    Hartree Fock is set to
   LHFONE  =     F    Hartree Fock one center treatment
   AEXX    =    0.0000 exact exchange contribution

 Linear response parameters
   LEPSILON=     F    determine dielectric tensor
   LRPA    =     F    only Hartree local field effects (RPA)
   LNABLA  =     F    use nabla operator in PAW spheres
   LVEL    =     F    velocity operator in full k-point grid
   CSHIFT  =0.1000    complex shift for real part using Kramers Kronig
   OMEGAMAX=  -1.0    maximum frequency
   DEG_THRESHOLD= 0.2000000E-02 threshold for treating states as degnerate
   RTIME   =   -0.100 relaxation time in fs
  (WPLASMAI=    0.000 imaginary part of plasma frequency in eV, 0.658/RTIME)
   DFIELD  = 0.0000000 0.0000000 0.0000000 field for delta impulse in time
 
  Optional k-point grid parameters
   LKPOINTS_OPT  =     F    use optional k-point grid
   KPOINTS_OPT_MODE=     1    mode for optional k-point grid
 
 Orbital magnetization related:
   ORBITALMAG=     F  switch on orbital magnetization
   LCHIMAG   =     F  perturbation theory with respect to B field
   DQ        =  0.001000  dq finite difference perturbation B field
   LLRAUG    =     F  two centre corrections for induced B field
   LBONE     =     F  B-component reconstruction in AE one-centre
   LVGVCALC  =     T  calculate vGv susceptibility
   LVGVAPPL  =     F  apply vGv susceptibility instead of pGv for G=0

 Random number generation:
   RANDOM_GENERATOR = DEFAULT
   PCG_SEED         = not used


--------------------------------------------------------------------------------------------------------


 Static calculation
 charge density and potential will be updated during run
 non-spin polarized calculation
 RMM-DIIS sequential band-by-band and
  variant of blocked Davidson during initial phase
 perform sub-space diagonalisation
    before iterative eigenvector-optimisation
 modified Broyden-mixing scheme, WC =      100.0
 initial mixing is a Kerker type mixing with AMIX =  0.4000 and BMIX =      1.0000
 Hartree-type preconditioning will be used
 using additional bands           33
 real space projection scheme for non local part
 use partial core corrections
 calculate Harris-corrections to forces 
   (improved forces if not selfconsistent)
 use gradient corrections 
 use of overlap-Matrix (Vanderbilt PP)
 Gauss-broadening in eV      SIGMA  =   0.10


--------------------------------------------------------------------------------------------------------


  energy-cutoff  :      250.00
  volume of cell :     1295.72
      direct lattice vectors                 reciprocal lattice vectors
    10.902411870  0.000000000  0.000000000     0.091722824  0.000069392  0.000075818
    -0.008247060 10.901053550  0.000000000     0.000000000  0.091734253 -0.000036443
    -0.009015190  0.004331210 10.902385090     0.000000000  0.000000000  0.091723049

  length of vectors
    10.902411870 10.901056670 10.902389678     0.091722881  0.091734260  0.091723049


 
 old parameters found on file WAVECAR:
  energy-cutoff  :      250.00
  volume of cell :     1296.50
      direct lattice vectors                 reciprocal lattice vectors
    10.904723990  0.000000000  0.000000000     0.091703376  0.000070441  0.000074543
    -0.008375140 10.903122790  0.000000000     0.000000000  0.091716843 -0.000033266
    -0.008867040  0.003955110 10.904505020     0.000000000  0.000000000  0.091705217

  length of vectors

 
 k-points in units of 2pi/SCALE and weight: K-Points                                
   0.02293071  0.02295091  0.02294061       0.250
  -0.02293071  0.02291622  0.02290270       0.250
   0.02293071 -0.02291622  0.02295883       0.250
  -0.02293071 -0.02295091  0.02292092       0.250
 
 k-points in reciprocal lattice and weights: K-Points                                
   0.25000000  0.25000000  0.25000000       0.250
  -0.25000000  0.25000000  0.25000000       0.250
   0.25000000 -0.25000000  0.25000000       0.250
  -0.25000000 -0.25000000  0.25000000       0.250
 
 position of ions in fractional coordinates (direct lattice) 
   0.00339010  0.99881123  0.99710796
   0.25364503  0.25356184  0.00080645
   0.24560690  0.01034923  0.25207720
   0.01127075  0.24839133  0.25076302
   0.12344710  0.12602409  0.11876545
   0.39009567  0.37565838  0.12572260
   0.36633029  0.13470827  0.38550379
   0.13342445  0.37497439  0.37588541
   0.00383325  0.00025563  0.50881049
   0.24616636  0.25801287  0.51599264
   0.24563395  0.00147087  0.74786524
   0.99055488  0.25325664  0.76583455
   0.11870261  0.13667723  0.63800814
   0.37936456  0.38494002  0.62610918
   0.37367205  0.12456350  0.87076354
   0.12336129  0.37585569  0.88155411
   0.00223479  0.49611474  0.00906233
   0.24918738  0.75094780  0.00502655
   0.26188604  0.50256665  0.25397628
   0.01118652  0.74668984  0.25947255
   0.12693440  0.62189421  0.13158041
   0.37470701  0.88120571  0.13181416
   0.39050436  0.63167741  0.37501316
   0.13302616  0.87616296  0.38628408
   0.00429953  0.50032349  0.49572417
   0.26858980  0.75052111  0.50045032
   0.24841659  0.50053008  0.75222031
   0.00612642  0.74962856  0.74676003
   0.13535980  0.62708480  0.61939256
   0.38094006  0.88206525  0.62921102
   0.37582516  0.62201830  0.87870366
   0.12948321  0.87708921  0.87270815
   0.49613668  0.00203115  0.00396520
   0.73898800  0.25394819  0.00950106
   0.76032027  0.00345870  0.24753565
   0.50391963  0.25502325  0.26656274
   0.61641691  0.12620039  0.13367891
   0.88124133  0.36729291  0.12939380
   0.88397427  0.12881692  0.37730028
   0.63703337  0.38243097  0.38139576
   0.49950876  0.00277976  0.49523367
   0.76213506  0.25346450  0.50096606
   0.73911763  0.00541568  0.74475774
   0.50092236  0.25356284  0.74586372
   0.62894085  0.13111197  0.61708218
   0.87760471  0.38324109  0.62988465
   0.85958731  0.11968739  0.88516641
   0.62588454  0.37609518  0.87502184
   0.50848354  0.50253972  0.99421815
   0.76060715  0.75592503  0.00594605
   0.75836514  0.50492750  0.24565469
   0.50613663  0.75033749  0.24397387
   0.62897295  0.62822435  0.11938214
   0.88959604  0.87505362  0.13393668
   0.88147754  0.62897678  0.37564179
   0.63312456  0.87828147  0.37186825
   0.50854049  0.50966338  0.50408303
   0.75829742  0.75610896  0.50274994
   0.74615595  0.50692425  0.75400142
   0.49769438  0.75449388  0.75937077
   0.62456046  0.64021428  0.62608538
   0.87235912  0.88477036  0.63656644
   0.87658954  0.62289948  0.88663663
   0.62468116  0.88027115  0.88195426
 
 position of ions in cartesian coordinates  (Angst):
   0.01973387 10.89241334 10.87085497
   2.76324422  2.76409470  0.00879223
   2.67534971  0.11390929  2.74824273
   0.11856920  2.70881327  2.73391502
   1.34376110  1.37430978  1.29482669
   4.24875219  4.09561666  1.37067620
   3.98929739  1.47013179  4.20291082
   1.44816715  4.08924394  4.09804753
   0.03720254  0.00499038  5.54724791
   2.67702742  2.81484698  5.62555048
   2.67124825  0.01927316  8.15351480
  10.79044456  2.76408116  8.34942316
   1.28726581  1.49268915  6.95581039
   4.12716952  4.19896353  6.82608337
   4.06504925  1.36164486  9.49339942
   1.33388853  4.10104124  9.61104241
   0.02019145  5.40821257  0.09880103
   2.71050503  8.18614400  0.05480142
   2.84875512  5.47960598  2.76894725
   0.11346283  8.14082977  2.82886962
   1.37757606  6.77987202  1.43454026
   4.07675446  9.60664152  1.43708874
   4.24884904  6.88757348  4.08853788
   1.43959774  9.55277241  4.21141783
   0.03827995  5.45620020  5.40457578
   2.91757539  8.18363839  5.45610209
   2.69743068  5.45956326  8.20099544
   0.05387834  8.17497548  8.14146538
   1.46499269  6.83856766  6.75285616
   4.14021854  9.61816582  6.85990086
   4.08434918  6.78446064  9.57996571
   1.39657828  9.56497631  9.51460031
   5.40903396  0.02215890  0.04323010
   8.05457153  2.76834397  0.10358426
   8.28706460  0.03877564  2.69872903
   5.48943300  2.78117660  2.90616960
   6.71818516  1.37629619  1.45741894
   9.60346035  4.00444015  1.41070109
   9.63298783  1.40587428  4.11347296
   6.93860792  4.17055237  4.15812348
   5.44136265  0.03244724  5.39922815
   8.30250372  2.76519989  5.46172487
   8.05140598  0.06226236  8.11963567
   5.45244665  2.76733263  8.13169350
   6.85032779  1.43193137  6.72766751
   9.55916886  4.18045983  6.86724501
   9.36260791  1.30855248  9.65042512
   6.81266092  4.10362357  9.53982509
   5.53058943  5.48251860 10.83934909
   8.28616469  8.24040496  0.06482617
   8.26163032  5.50530575  2.67822198
   5.50972240  8.18052587  2.65989706
   6.85106489  6.84882431  1.30155003
   9.69031834  9.53958648  1.46022926
   9.60165754  6.85813659  4.09539146
   6.89198900  9.57580403  4.05425085
   5.53557026  5.55805109  5.49570733
   8.25650270  8.24456173  5.48117348
   8.12392141  5.52927413  8.22041389
   5.41300093  8.22806715  8.27895254
   6.79829116  6.98172191  6.82582394
   9.49778294  9.64768619  6.94009245
   9.54380994  6.79410075  9.66645399
   6.79532067  9.59970290  9.61540501
 


--------------------------------------------------------------------------------------------------------


 k-point   1 :   0.2500 0.2500 0.2500  plane waves:   11635
 k-point   2 :  -0.2500 0.2500 0.2500  plane waves:   11641
 k-point   3 :   0.2500-0.2500 0.2500  plane waves:   11637
 k-point   4 :  -0.2500-0.2500 0.2500  plane waves:   11637

 maximum and minimum number of plane-waves per node :       427      400

 maximum number of plane-waves:     11641
 maximum index in each direction: 
   IXMAX=   14   IYMAX=   14   IZMAX=   13
   IXMIN=  -14   IYMIN=  -14   IZMIN=  -14


 real space projection operators:
  total allocation   :       3467.94 KBytes
  max/ min on nodes  :        171.56         76.62


 parallel 3D FFT for wavefunctions:
    minimum data exchange during FFTs selected (reduces bandwidth)
 parallel 3D FFT for charge:
    minimum data exchange during FFTs selected (reduces bandwidth)


 total amount of memory used by VASP MPI-rank0    37773. kBytes
=======================================================================

   base      :      30000. kBytes
   nonlr-proj:       1195. kBytes
   fftplans  :        841. kBytes
   grid      :       1174. kBytes
   one-center:          9. kBytes
   wavefun   :       4554. kBytes
 
     INWAV:  cpu time     19.4822: real time     19.5251
 Broyden mixing: mesh for mixing (old mesh)
   NGX = 29   NGY = 29   NGZ = 29
  (NGX  = 84   NGY  = 84   NGZ  = 84)
  gives a total of  24389 points

 initial charge density was supplied:
 number of electron     255.9999966 magnetization 
 keeping initial charge density in first step


--------------------------------------------------------------------------------------------------------


 Maximum index for non-local projection operator          112
 Maximum index for augmentation-charges          183 (set IRDMAX)


--------------------------------------------------------------------------------------------------------


 First call to EWALD:  gamma=   0.163
 Maximum number of real-space cells 3x 3x 3
 Maximum number of reciprocal cells 3x 3x 3

    FEWALD:  cpu time      0.1462: real time      0.1465


--------------------------------------- Ionic step        1  -------------------------------------------




--------------------------------------- Iteration      1(   1)  ---------------------------------------


    POTLOK:  cpu time      0.2365: real time      0.2374
    SETDIJ:  cpu time      0.0137: real time      0.0138
     EDDAV:  cpu time     34.9255: real time     35.0042
       DOS:  cpu time      0.0707: real time      0.0708
    CHARGE:  cpu time      2.1857: real time      2.1905
    MIXING:  cpu time      0.0473: real time      0.0474
    --------------------------------------------
      LOOP:  cpu time     37.4795: real time     37.5642

 eigenvalue-minimisations  :  1392
 total energy-change (2. order) :-0.3453104E+03  (-0.1208497E+00)
 number of electron     255.9999961 magnetization 
 augmentation part      -14.6434340 magnetization 

 Broyden mixing:
  rms(total) = 0.58553E-01    rms(broyden)= 0.58549E-01
  rms(prec ) = 0.61196E-01
  weight for this iteration     100.00

 Free energy of the ion-electron system (eV)
  ---------------------------------------------------
  alpha Z        PSCENC =       106.41476169
  Ewald energy   TEWEN  =     -7287.49261565
  -Hartree energ DENC   =      -480.59543876
  -exchange      EXHF   =         0.00000000
  -V(xc)+E(xc)   XCENC  =      -576.54266020
  PAW double counting   =     31298.11663079   -30179.09779299
  entropy T*S    EENTRO =        -0.00000000
  eigenvalues    EBANDS =       177.93472604
  atomic energy  EATOM  =      6595.95197522
  Solvation  Ediel_sol  =         0.00000000
  ---------------------------------------------------
  free energy    TOTEN  =      -345.31041387 eV

  energy without entropy =     -345.31041387  energy(sigma->0) =     -345.31041387


--------------------------------------------------------------------------------------------------------




--------------------------------------- Iteration      1(   2)  ---------------------------------------


    POTLOK:  cpu time      0.0461: real time      0.0475
    SETDIJ:  cpu time      0.0019: real time      0.0019
    EDDIAG:  cpu time      3.9408: real time      3.9496
  RMM-DIIS:  cpu time     25.6215: real time     25.6778
    ORTHCH:  cpu time      0.2346: real time      0.2351
       DOS:  cpu time      0.1257: real time      0.1260
    CHARGE:  cpu time      2.8394: real time      2.8457
    MIXING:  cpu time      0.1380: real time      0.1384
    --------------------------------------------
      LOOP:  cpu time     32.9481: real time     33.0220

 eigenvalue-minimisations  :  1289
 total energy-change (2. order) :-0.6527135E-02  (-0.7073288E-02)
 number of electron     255.9999961 magnetization 
 augmentation part      -14.6432017 magnetization 

 Broyden mixing:
  rms(total) = 0.21093E-01    rms(broyden)= 0.21091E-01
  rms(prec ) = 0.25023E-01
  weight for this iteration     100.00

 eigenvalues of (default mixing * dielectric matrix)
  average eigenvalue GAMMA=   1.3311
  1.3311

 Free energy of the ion-electron system (eV)
  ---------------------------------------------------
  alpha Z        PSCENC =       106.41476169
  Ewald energy   TEWEN  =     -7287.49261565
  -Hartree energ DENC   =      -480.46782762
  -exchange      EXHF   =         0.00000000
  -V(xc)+E(xc)   XCENC  =      -576.54446630
  PAW double counting   =     31329.74848302   -30210.73628025
  entropy T*S    EENTRO =        -0.00000000
  eigenvalues    EBANDS =       177.80902889
  atomic energy  EATOM  =      6595.95197522
  Solvation  Ediel_sol  =         0.00000000
  ---------------------------------------------------
  free energy    TOTEN  =      -345.31694100 eV

  energy without entropy =     -345.31694100  energy(sigma->0) =     -345.31694100


--------------------------------------------------------------------------------------------------------




--------------------------------------- Iteration      1(   3)  ---------------------------------------


    POTLOK:  cpu time      0.4082: real time      0.4091
    SETDIJ:  cpu time      0.0388: real time      0.0388
    EDDIAG:  cpu time      5.0575: real time      5.0688
  RMM-DIIS:  cpu time     22.3558: real time     22.4052
    ORTHCH:  cpu time      0.2794: real time      0.2800
       DOS:  cpu time      0.1267: real time      0.1270
    CHARGE:  cpu time      1.7950: real time      1.7990
    MIXING:  cpu time      0.1338: real time      0.1341
    --------------------------------------------
      LOOP:  cpu time     30.1951: real time     30.2621

 eigenvalue-minimisations  :  1511
 total energy-change (2. order) :-0.5908404E-03  (-0.1064382E-02)
 number of electron     255.9999961 magnetization 
 augmentation part      -14.6437948 magnetization 

 Broyden mixing:
  rms(total) = 0.92764E-02    rms(broyden)= 0.92758E-02
  rms(prec ) = 0.11361E-01
  weight for this iteration     100.00

 eigenvalues of (default mixing * dielectric matrix)
  average eigenvalue GAMMA=   1.6388
  1.6388  1.6388

 Free energy of the ion-electron system (eV)
  ---------------------------------------------------
  alpha Z        PSCENC =       106.41476169
  Ewald energy   TEWEN  =     -7287.49261565
  -Hartree energ DENC   =      -480.35900533
  -exchange      EXHF   =         0.00000000
  -V(xc)+E(xc)   XCENC  =      -576.54627258
  PAW double counting   =     31349.19580578   -30230.18923297
  entropy T*S    EENTRO =        -0.00000000
  eigenvalues    EBANDS =       177.70705199
  atomic energy  EATOM  =      6595.95197522
  Solvation  Ediel_sol  =         0.00000000
  ---------------------------------------------------
  free energy    TOTEN  =      -345.31753184 eV

  energy without entropy =     -345.31753184  energy(sigma->0) =     -345.31753184


--------------------------------------------------------------------------------------------------------




--------------------------------------- Iteration      1(   4)  ---------------------------------------


    POTLOK:  cpu time      0.0453: real time      0.0464
    SETDIJ:  cpu time      0.0018: real time      0.0019
    EDDIAG:  cpu time      6.9612: real time      6.9768
  RMM-DIIS:  cpu time     29.2229: real time     29.2879
    ORTHCH:  cpu time      0.4918: real time      0.4930
       DOS:  cpu time      0.0014: real time      0.0014
    CHARGE:  cpu time      1.4672: real time      1.4706
    MIXING:  cpu time      0.0004: real time      0.0004
    --------------------------------------------
      LOOP:  cpu time     38.1921: real time     38.2783

 eigenvalue-minimisations  :  1558
 total energy-change (2. order) :-0.6834192E-04  (-0.1903688E-03)
 number of electron     255.9999961 magnetization 
 augmentation part      -14.6440556 magnetization 

 Broyden mixing:
  rms(total) = 0.46292E-02    rms(broyden)= 0.46290E-02
  rms(prec ) = 0.51782E-02
  weight for this iteration     100.00

 eigenvalues of (default mixing * dielectric matrix)
  average eigenvalue GAMMA=   1.7575
  1.0235  2.1095  2.1395

 Free energy of the ion-electron system (eV)
  ---------------------------------------------------
  alpha Z        PSCENC =       106.41476169
  Ewald energy   TEWEN  =     -7287.49261565
  -Hartree energ DENC   =      -480.31169018
  -exchange      EXHF   =         0.00000000
  -V(xc)+E(xc)   XCENC  =      -576.54542151
  PAW double counting   =     31353.08168703   -30234.08026761
  entropy T*S    EENTRO =        -0.00000000
  eigenvalues    EBANDS =       177.66397082
  atomic energy  EATOM  =      6595.95197522
  Solvation  Ediel_sol  =         0.00000000
  ---------------------------------------------------
  free energy    TOTEN  =      -345.31760018 eV

  energy without entropy =     -345.31760018  energy(sigma->0) =     -345.31760018


--------------------------------------------------------------------------------------------------------




--------------------------------------- Iteration      1(   5)  ---------------------------------------


    POTLOK:  cpu time      0.3284: real time      0.3292
    SETDIJ:  cpu time      0.0368: real time      0.0369
    EDDIAG:  cpu time      6.6752: real time      6.6906
  RMM-DIIS:  cpu time     23.5654: real time     23.6174
    ORTHCH:  cpu time      0.3766: real time      0.3774
       DOS:  cpu time      0.1327: real time      0.1330
    --------------------------------------------
      LOOP:  cpu time     31.1151: real time     31.1846

 eigenvalue-minimisations  :  1166
 total energy-change (2. order) :-0.2809464E-04  (-0.3659346E-04)
 number of electron     255.9999961 magnetization 
 augmentation part      -14.6440556 magnetization 

 Free energy of the ion-electron system (eV)
  ---------------------------------------------------
  alpha Z        PSCENC =       106.41476169
  Ewald energy   TEWEN  =     -7287.49261565
  -Hartree energ DENC   =      -480.29293597
  -exchange      EXHF   =         0.00000000
  -V(xc)+E(xc)   XCENC  =      -576.54477694
  PAW double counting   =     31349.33303342   -30230.33460864
  entropy T*S    EENTRO =        -0.00000000
  eigenvalues    EBANDS =       177.64753859
  atomic energy  EATOM  =      6595.95197522
  Solvation  Ediel_sol  =         0.00000000
  ---------------------------------------------------
  free energy    TOTEN  =      -345.31762828 eV

  energy without entropy =     -345.31762828  energy(sigma->0) =     -345.31762828


--------------------------------------------------------------------------------------------------------




 average (electrostatic) potential at core
  the test charge radii are     0.9892
  (the norm of the test charge is              1.0000)
       1 -83.4219       2 -83.3891       3 -83.4206       4 -83.3740       5 -83.3723
       6 -83.4025       7 -83.4061       8 -83.3968       9 -83.3981      10 -83.3818
      11 -83.3249      12 -83.3789      13 -83.3840      14 -83.4013      15 -83.3743
      16 -83.3599      17 -83.3509      18 -83.4146      19 -83.3876      20 -83.3455
      21 -83.3833      22 -83.3920      23 -83.3415      24 -83.4253      25 -83.3873
      26 -83.3596      27 -83.3867      28 -83.4241      29 -83.4246      30 -83.3620
      31 -83.3889      32 -83.3500      33 -83.3726      34 -83.4138      35 -83.3685
      36 -83.3867      37 -83.3841      38 -83.3921      39 -83.3619      40 -83.3981
      41 -83.4158      42 -83.3614      43 -83.3866      44 -83.4227      45 -83.3931
      46 -83.3822      47 -83.4383      48 -83.3439      49 -83.3504      50 -83.3770
      51 -83.4174      52 -83.3720      53 -83.3963      54 -83.3758      55 -83.3641
      56 -83.3829      57 -83.4042      58 -83.3871      59 -83.3709      60 -83.3737
      61 -83.3750      62 -83.3738      63 -83.3895      64 -83.4168
 
 
 
 E-fermi :   5.9565     XC(G=0):  -9.3715     alpha+bet :-11.8467

 Fermi energy:         5.9564778228

 k-point     1 :       0.2500    0.2500    0.2500
  band No.  band energies     occupation 
      1      -5.9720      2.00000
      2      -5.4818      2.00000
      3      -5.4537      2.00000
      4      -5.3834      2.00000
      5      -4.9790      2.00000
      6      -4.9587      2.00000
      7      -4.8812      2.00000
      8      -4.5207      2.00000
      9      -4.4349      2.00000
     10      -4.4125      2.00000
     11      -4.3379      2.00000
     12      -4.0373      2.00000
     13      -4.0137      2.00000
     14      -3.9688      2.00000
     15      -3.9635      2.00000
     16      -3.9292      2.00000
     17      -3.9011      2.00000
     18      -3.7936      2.00000
     19      -3.7553      2.00000
     20      -3.7422      2.00000
     21      -3.3167      2.00000
     22      -3.2880      2.00000
     23      -3.2291      2.00000
     24      -2.9355      2.00000
     25      -2.9105      2.00000
     26      -2.8790      2.00000
     27      -2.7666      2.00000
     28      -2.7594      2.00000
     29      -2.7219      2.00000
     30      -2.7142      2.00000
     31      -2.6870      2.00000
     32      -2.6525      2.00000
     33      -1.2325      2.00000
     34      -1.2162      2.00000
     35      -1.2047      2.00000
     36      -1.1859      2.00000
     37      -1.1597      2.00000
     38      -1.1484      2.00000
     39      -1.1326      2.00000
     40      -1.1026      2.00000
     41      -1.0791      2.00000
     42      -0.9855      2.00000
     43      -0.9644      2.00000
     44      -0.9443      2.00000
     45      -0.8949      2.00000
     46      -0.8467      2.00000
     47      -0.8212      2.00000
     48      -0.1940      2.00000
     49      -0.1473      2.00000
     50      -0.1248      2.00000
     51      -0.1047      2.00000
     52      -0.0811      2.00000
     53      -0.0659      2.00000
     54      -0.0512      2.00000
     55       0.7794      2.00000
     56       0.8140      2.00000
     57       0.8326      2.00000
     58       1.0876      2.00000
     59       1.1128      2.00000
     60       1.1366      2.00000
     61       1.6578      2.00000
     62       1.6765      2.00000
     63       1.6895      2.00000
     64       1.6979      2.00000
     65       1.7276      2.00000
     66       1.7361      2.00000
     67       1.7648      2.00000
     68       1.7739      2.00000
     69       1.7862      2.00000
     70       2.3022      2.00000
     71       2.3251      2.00000
     72       2.3298      2.00000
     73       2.3546      2.00000
     74       2.3823      2.00000
     75       2.4008      2.00000
     76       2.4207      2.00000
     77       2.4415      2.00000
     78       2.4623      2.00000
     79       2.4915      2.00000
     80       2.5208      2.00000
     81       2.5469      2.00000
     82       2.7631      2.00000
     83       2.7726      2.00000
     84       2.7909      2.00000
     85       2.8027      2.00000
     86       2.8288      2.00000
     87       2.8615      2.00000
     88       3.0218      2.00000
     89       3.0348      2.00000
     90       3.0617      2.00000
     91       3.0761      2.00000
     92       3.1110      2.00000
     93       3.1495      2.00000
     94       3.3873      2.00000
     95       3.4165      2.00000
     96       3.4612      2.00000
     97       3.4894      2.00000
     98       3.5020      2.00000
     99       3.5208      2.00000
    100       3.5275      2.00000
    101       3.5480      2.00000
    102       3.5574      2.00000
    103       3.7722      2.00000
    104       3.8171      2.00000
    105       3.8239      2.00000
    106       3.8450      2.00000
    107       3.8607      2.00000
    108       3.8691      2.00000
    109       3.8855      2.00000
    110       3.9025      2.00000
    111       3.9213      2.00000
    112       4.1180      2.00000
    113       4.1715      2.00000
    114       4.1935      2.00000
    115       4.2337      2.00000
    116       4.4042      2.00000
    117       4.4184      2.00000
    118       4.4474      2.00000
    119       4.5001      2.00000
    120       4.5439      2.00000
    121       4.5631      2.00000
    122       4.6251      2.00000
    123       4.6736      2.00000
    124       4.9360      2.00000
    125       4.9623      2.00000
    126       4.9953      2.00000
    127       5.4114      2.00000
    128       5.4594      2.00000
    129       6.5939      0.00000
    130       6.6059      0.00000
    131       6.6443      0.00000
    132       7.0437      0.00000
    133       7.0700      0.00000
    134       7.0870      0.00000
    135       7.3028      0.00000
    136       7.5128      0.00000
    137       7.5398      0.00000
    138       7.5546      0.00000
    139       7.6488      0.00000
    140       7.6828      0.00000
    141       7.7113      0.00000
    142       7.8068      0.00000
    143       7.8324      0.00000
    144       7.8532      0.00000
    145       7.8817      0.00000
    146       7.8970      0.00000
    147       7.9306      0.00000
    148       8.0497      0.00000
    149       8.0875      0.00000
    150       8.1225      0.00000
    151       8.1469      0.00000
    152       8.1565      0.00000
    153       8.1726      0.00000
    154       8.1999      0.00000
    155       8.3700      0.00000
    156       8.3867      0.00000
    157       8.4160      0.00000
    158       8.4424      0.00000
    159       8.5158      0.00000
    160       8.5520      0.00000
    161       8.5940      0.00000

 k-point     2 :      -0.2500    0.2500    0.2500
  band No.  band energies     occupation 
      1      -5.9719      2.00000
      2      -5.4750      2.00000
      3      -5.4461      2.00000
      4      -5.4041      2.00000
      5      -4.9707      2.00000
      6      -4.9480      2.00000
      7      -4.8965      2.00000
      8      -4.5028      2.00000
      9      -4.4331      2.00000
     10      -4.3958      2.00000
     11      -4.3592      2.00000
     12      -4.0407      2.00000
     13      -4.0074      2.00000
     14      -3.9919      2.00000
     15      -3.9595      2.00000
     16      -3.9457      2.00000
     17      -3.9253      2.00000
     18      -3.7824      2.00000
     19      -3.7681      2.00000
     20      -3.7106      2.00000
     21      -3.3039      2.00000
     22      -3.2635      2.00000
     23      -3.2215      2.00000
     24      -2.9389      2.00000
     25      -2.9103      2.00000
     26      -2.9019      2.00000
     27      -2.7841      2.00000
     28      -2.7560      2.00000
     29      -2.7257      2.00000
     30      -2.6962      2.00000
     31      -2.6849      2.00000
     32      -2.6641      2.00000
     33      -1.2256      2.00000
     34      -1.2136      2.00000
     35      -1.1962      2.00000
     36      -1.1881      2.00000
     37      -1.1691      2.00000
     38      -1.1508      2.00000
     39      -1.1100      2.00000
     40      -1.0752      2.00000
     41      -1.0554      2.00000
     42      -0.9696      2.00000
     43      -0.9592      2.00000
     44      -0.9486      2.00000
     45      -0.9112      2.00000
     46      -0.8934      2.00000
     47      -0.8775      2.00000
     48      -0.2160      2.00000
     49      -0.1284      2.00000
     50      -0.0947      2.00000
     51      -0.0895      2.00000
     52      -0.0740      2.00000
     53      -0.0650      2.00000
     54      -0.0379      2.00000
     55       0.7631      2.00000
     56       0.7732      2.00000
     57       0.7940      2.00000
     58       1.0960      2.00000
     59       1.1139      2.00000
     60       1.1341      2.00000
     61       1.6656      2.00000
     62       1.6843      2.00000
     63       1.6878      2.00000
     64       1.7018      2.00000
     65       1.7284      2.00000
     66       1.7370      2.00000
     67       1.7710      2.00000
     68       1.7897      2.00000
     69       1.8013      2.00000
     70       2.2775      2.00000
     71       2.2946      2.00000
     72       2.3109      2.00000
     73       2.3816      2.00000
     74       2.4094      2.00000
     75       2.4185      2.00000
     76       2.4314      2.00000
     77       2.4468      2.00000
     78       2.4818      2.00000
     79       2.5236      2.00000
     80       2.5564      2.00000
     81       2.5769      2.00000
     82       2.7662      2.00000
     83       2.7744      2.00000
     84       2.7913      2.00000
     85       2.7960      2.00000
     86       2.8179      2.00000
     87       2.8449      2.00000
     88       3.0365      2.00000
     89       3.0678      2.00000
     90       3.0843      2.00000
     91       3.1038      2.00000
     92       3.1119      2.00000
     93       3.1250      2.00000
     94       3.3602      2.00000
     95       3.3889      2.00000
     96       3.4196      2.00000
     97       3.4357      2.00000
     98       3.4625      2.00000
     99       3.5161      2.00000
    100       3.5294      2.00000
    101       3.5567      2.00000
    102       3.5730      2.00000
    103       3.7642      2.00000
    104       3.7876      2.00000
    105       3.8005      2.00000
    106       3.8205      2.00000
    107       3.8435      2.00000
    108       3.8528      2.00000
    109       3.8793      2.00000
    110       3.9010      2.00000
    111       3.9044      2.00000
    112       4.0893      2.00000
    113       4.2031      2.00000
    114       4.2092      2.00000
    115       4.2323      2.00000
    116       4.4279      2.00000
    117       4.4340      2.00000
    118       4.4549      2.00000
    119       4.4712      2.00000
    120       4.4873      2.00000
    121       4.5042      2.00000
    122       4.6662      2.00000
    123       4.6883      2.00000
    124       4.9742      2.00000
    125       4.9994      2.00000
    126       5.0229      2.00000
    127       5.4552      2.00000
    128       5.4823      2.00000
    129       6.6177      0.00000
    130       6.6309      0.00000
    131       6.6635      0.00000
    132       7.0581      0.00000
    133       7.0901      0.00000
    134       7.1076      0.00000
    135       7.3350      0.00000
    136       7.5422      0.00000
    137       7.5675      0.00000
    138       7.5833      0.00000
    139       7.6346      0.00000
    140       7.6671      0.00000
    141       7.6802      0.00000
    142       7.8171      0.00000
    143       7.8490      0.00000
    144       7.8682      0.00000
    145       7.8921      0.00000
    146       7.8998      0.00000
    147       7.9264      0.00000
    148       8.0324      0.00000
    149       8.0831      0.00000
    150       8.0996      0.00000
    151       8.1113      0.00000
    152       8.1306      0.00000
    153       8.1463      0.00000
    154       8.1890      0.00000
    155       8.3787      0.00000
    156       8.4025      0.00000
    157       8.4152      0.00000
    158       8.4435      0.00000
    159       8.5013      0.00000
    160       8.5263      0.00000
    161       8.6017      0.00000

 k-point     3 :       0.2500   -0.2500    0.2500
  band No.  band energies     occupation 
      1      -5.9716      2.00000
      2      -5.4824      2.00000
      3      -5.4522      2.00000
      4      -5.3870      2.00000
      5      -4.9766      2.00000
      6      -4.9564      2.00000
      7      -4.8847      2.00000
      8      -4.5125      2.00000
      9      -4.4338      2.00000
     10      -4.4093      2.00000
     11      -4.3385      2.00000
     12      -4.0179      2.00000
     13      -4.0110      2.00000
     14      -3.9969      2.00000
     15      -3.9733      2.00000
     16      -3.9467      2.00000
     17      -3.8992      2.00000
     18      -3.7779      2.00000
     19      -3.7570      2.00000
     20      -3.7521      2.00000
     21      -3.3037      2.00000
     22      -3.2888      2.00000
     23      -3.2096      2.00000
     24      -2.9230      2.00000
     25      -2.9063      2.00000
     26      -2.8983      2.00000
     27      -2.7786      2.00000
     28      -2.7507      2.00000
     29      -2.7244      2.00000
     30      -2.7079      2.00000
     31      -2.6990      2.00000
     32      -2.6557      2.00000
     33      -1.2471      2.00000
     34      -1.2154      2.00000
     35      -1.1980      2.00000
     36      -1.1808      2.00000
     37      -1.1654      2.00000
     38      -1.1395      2.00000
     39      -1.1133      2.00000
     40      -1.0913      2.00000
     41      -1.0669      2.00000
     42      -0.9855      2.00000
     43      -0.9588      2.00000
     44      -0.9455      2.00000
     45      -0.9083      2.00000
     46      -0.8734      2.00000
     47      -0.8417      2.00000
     48      -0.2045      2.00000
     49      -0.1476      2.00000
     50      -0.1149      2.00000
     51      -0.1058      2.00000
     52      -0.0874      2.00000
     53      -0.0521      2.00000
     54      -0.0257      2.00000
     55       0.7613      2.00000
     56       0.7970      2.00000
     57       0.8159      2.00000
     58       1.0875      2.00000
     59       1.1197      2.00000
     60       1.1422      2.00000
     61       1.6669      2.00000
     62       1.6833      2.00000
     63       1.6983      2.00000
     64       1.7060      2.00000
     65       1.7218      2.00000
     66       1.7458      2.00000
     67       1.7595      2.00000
     68       1.7746      2.00000
     69       1.7894      2.00000
     70       2.2889      2.00000
     71       2.3060      2.00000
     72       2.3123      2.00000
     73       2.3692      2.00000
     74       2.3907      2.00000
     75       2.4033      2.00000
     76       2.4281      2.00000
     77       2.4475      2.00000
     78       2.4570      2.00000
     79       2.4960      2.00000
     80       2.5338      2.00000
     81       2.5563      2.00000
     82       2.7462      2.00000
     83       2.7783      2.00000
     84       2.7879      2.00000
     85       2.8043      2.00000
     86       2.8315      2.00000
     87       2.8775      2.00000
     88       3.0085      2.00000
     89       3.0725      2.00000
     90       3.0873      2.00000
     91       3.1056      2.00000
     92       3.1195      2.00000
     93       3.1285      2.00000
     94       3.3889      2.00000
     95       3.4009      2.00000
     96       3.4490      2.00000
     97       3.4692      2.00000
     98       3.4810      2.00000
     99       3.5066      2.00000
    100       3.5291      2.00000
    101       3.5513      2.00000
    102       3.5783      2.00000
    103       3.7699      2.00000
    104       3.7871      2.00000
    105       3.8237      2.00000
    106       3.8339      2.00000
    107       3.8425      2.00000
    108       3.8528      2.00000
    109       3.8669      2.00000
    110       3.8919      2.00000
    111       3.9137      2.00000
    112       4.1252      2.00000
    113       4.1852      2.00000
    114       4.2047      2.00000
    115       4.2184      2.00000
    116       4.4078      2.00000
    117       4.4296      2.00000
    118       4.4475      2.00000
    119       4.4879      2.00000
    120       4.5216      2.00000
    121       4.5454      2.00000
    122       4.6317      2.00000
    123       4.6939      2.00000
    124       4.9372      2.00000
    125       4.9719      2.00000
    126       5.0133      2.00000
    127       5.4176      2.00000
    128       5.4860      2.00000
    129       6.6217      0.00000
    130       6.6315      0.00000
    131       6.6481      0.00000
    132       7.0685      0.00000
    133       7.0775      0.00000
    134       7.1034      0.00000
    135       7.3193      0.00000
    136       7.5252      0.00000
    137       7.5602      0.00000
    138       7.5790      0.00000
    139       7.6352      0.00000
    140       7.6699      0.00000
    141       7.6927      0.00000
    142       7.8257      0.00000
    143       7.8367      0.00000
    144       7.8616      0.00000
    145       7.8785      0.00000
    146       7.8986      0.00000
    147       7.9178      0.00000
    148       8.0268      0.00000
    149       8.0681      0.00000
    150       8.0870      0.00000
    151       8.1235      0.00000
    152       8.1291      0.00000
    153       8.1686      0.00000
    154       8.1946      0.00000
    155       8.3706      0.00000
    156       8.3944      0.00000
    157       8.4194      0.00000
    158       8.4367      0.00000
    159       8.5001      0.00000
    160       8.5513      0.00000
    161       8.6025      0.00000

 k-point     4 :      -0.2500   -0.2500    0.2500
  band No.  band energies     occupation 
      1      -5.9723      2.00000
      2      -5.4671      2.00000
      3      -5.4507      2.00000
      4      -5.4056      2.00000
      5      -4.9651      2.00000
      6      -4.9528      2.00000
      7      -4.9028      2.00000
      8      -4.5121      2.00000
      9      -4.4207      2.00000
     10      -4.4009      2.00000
     11      -4.3550      2.00000
     12      -4.0248      2.00000
     13      -3.9954      2.00000
     14      -3.9850      2.00000
     15      -3.9591      2.00000
     16      -3.9555      2.00000
     17      -3.9342      2.00000
     18      -3.7896      2.00000
     19      -3.7505      2.00000
     20      -3.7354      2.00000
     21      -3.2950      2.00000
     22      -3.2787      2.00000
     23      -3.2356      2.00000
     24      -2.9281      2.00000
     25      -2.9108      2.00000
     26      -2.8880      2.00000
     27      -2.7744      2.00000
     28      -2.7407      2.00000
     29      -2.7272      2.00000
     30      -2.7137      2.00000
     31      -2.7052      2.00000
     32      -2.6511      2.00000
     33      -1.2309      2.00000
     34      -1.2182      2.00000
     35      -1.2004      2.00000
     36      -1.1795      2.00000
     37      -1.1768      2.00000
     38      -1.1587      2.00000
     39      -1.1148      2.00000
     40      -1.0836      2.00000
     41      -1.0757      2.00000
     42      -0.9849      2.00000
     43      -0.9585      2.00000
     44      -0.9394      2.00000
     45      -0.8950      2.00000
     46      -0.8856      2.00000
     47      -0.8239      2.00000
     48      -0.1972      2.00000
     49      -0.1322      2.00000
     50      -0.1208      2.00000
     51      -0.1028      2.00000
     52      -0.0810      2.00000
     53      -0.0631      2.00000
     54      -0.0472      2.00000
     55       0.7711      2.00000
     56       0.7940      2.00000
     57       0.8152      2.00000
     58       1.0887      2.00000
     59       1.1199      2.00000
     60       1.1383      2.00000
     61       1.6631      2.00000
     62       1.6836      2.00000
     63       1.6894      2.00000
     64       1.7004      2.00000
     65       1.7156      2.00000
     66       1.7343      2.00000
     67       1.7621      2.00000
     68       1.7792      2.00000
     69       1.7903      2.00000
     70       2.2888      2.00000
     71       2.3032      2.00000
     72       2.3221      2.00000
     73       2.3721      2.00000
     74       2.3866      2.00000
     75       2.4103      2.00000
     76       2.4300      2.00000
     77       2.4493      2.00000
     78       2.4602      2.00000
     79       2.5171      2.00000
     80       2.5348      2.00000
     81       2.5645      2.00000
     82       2.7636      2.00000
     83       2.7858      2.00000
     84       2.7963      2.00000
     85       2.8125      2.00000
     86       2.8291      2.00000
     87       2.8426      2.00000
     88       3.0296      2.00000
     89       3.0542      2.00000
     90       3.0683      2.00000
     91       3.0862      2.00000
     92       3.1020      2.00000
     93       3.1413      2.00000
     94       3.3802      2.00000
     95       3.4040      2.00000
     96       3.4445      2.00000
     97       3.4706      2.00000
     98       3.4799      2.00000
     99       3.5237      2.00000
    100       3.5326      2.00000
    101       3.5466      2.00000
    102       3.5591      2.00000
    103       3.7720      2.00000
    104       3.7997      2.00000
    105       3.8138      2.00000
    106       3.8290      2.00000
    107       3.8417      2.00000
    108       3.8647      2.00000
    109       3.8811      2.00000
    110       3.9031      2.00000
    111       3.9206      2.00000
    112       4.1238      2.00000
    113       4.1817      2.00000
    114       4.2039      2.00000
    115       4.2128      2.00000
    116       4.4085      2.00000
    117       4.4256      2.00000
    118       4.4449      2.00000
    119       4.4937      2.00000
    120       4.5184      2.00000
    121       4.5385      2.00000
    122       4.6404      2.00000
    123       4.6864      2.00000
    124       4.9567      2.00000
    125       4.9716      2.00000
    126       5.0049      2.00000
    127       5.4233      2.00000
    128       5.4796      2.00000
    129       6.5913      0.00000
    130       6.6126      0.00000
    131       6.6623      0.00000
    132       7.0513      0.00000
    133       7.0824      0.00000
    134       7.0947      0.00000
    135       7.3139      0.00000
    136       7.5264      0.00000
    137       7.5548      0.00000
    138       7.5665      0.00000
    139       7.6388      0.00000
    140       7.6805      0.00000
    141       7.6996      0.00000
    142       7.8256      0.00000
    143       7.8462      0.00000
    144       7.8553      0.00000
    145       7.8742      0.00000
    146       7.9108      0.00000
    147       7.9190      0.00000
    148       8.0633      0.00000
    149       8.0814      0.00000
    150       8.1059      0.00000
    151       8.1187      0.00000
    152       8.1327      0.00000
    153       8.1682      0.00000
    154       8.1841      0.00000
    155       8.3784      0.00000
    156       8.4020      0.00000
    157       8.4226      0.00000
    158       8.4457      0.00000
    159       8.5042      0.00000
    160       8.5509      0.00000
    161       8.5868      0.00000


--------------------------------------------------------------------------------------------------------


 soft charge-density along one line, spin component           1
         0         1         2         3         4         5         6         7         8         9
 total charge-density along one line
 
 pseudopotential strength for first ion, spin component:           1
 18.435  25.719   0.001  -0.001   0.001   0.002  -0.002   0.002
 25.719  35.888   0.001  -0.002   0.001   0.002  -0.003   0.002
  0.001   0.001   4.182   0.000   0.000   7.792   0.000   0.000
 -0.001  -0.002   0.000   4.182   0.000   0.000   7.792   0.000
  0.001   0.001   0.000   0.000   4.182   0.000   0.000   7.792
  0.002   0.002   7.792   0.000   0.000  14.531   0.000   0.001
 -0.002  -0.003   0.000   7.792   0.000   0.000  14.531   0.001
  0.002   0.002   0.000   0.000   7.792   0.001   0.001  14.531
 total augmentation occupancy for first ion, spin component:           1
  6.022  -2.330   0.030   0.140   0.089  -0.009  -0.051  -0.030
 -2.330   1.013  -0.029  -0.089  -0.043   0.007   0.027   0.014
  0.030  -0.029   3.312   0.089  -0.009  -0.802  -0.029   0.004
  0.140  -0.089   0.089   3.322  -0.029  -0.029  -0.805   0.006
  0.089  -0.043  -0.009  -0.029   3.349   0.004   0.005  -0.816
 -0.009   0.007  -0.802  -0.029   0.004   0.202   0.009  -0.001
 -0.051   0.027  -0.029  -0.805   0.005   0.009   0.203  -0.001
 -0.030   0.014   0.004   0.006  -0.816  -0.001  -0.001   0.207


------------------------ aborting loop because EDIFF is reached ----------------------------------------


    CHARGE:  cpu time      1.4448: real time      1.4480
    FORLOC:  cpu time      0.0237: real time      0.0238
    FORNL :  cpu time      9.2166: real time      9.2369
    STRESS:  cpu time     26.2024: real time     26.2615
    FORCOR:  cpu time      0.4632: real time      0.4643
    FORHAR:  cpu time      0.1358: real time      0.1360
    MIXING:  cpu time      0.0947: real time      0.0949
    OFIELD:  cpu time      0.0000: real time      0.0000

  FORCE on cell =-STRESS in cart. coord.  units (eV):
  Direction    XX          YY          ZZ          XY          YZ          ZX
  --------------------------------------------------------------------------------------
  Alpha Z   106.41476   106.41476   106.41476
  Ewald   -2429.66507 -2428.78727 -2429.08532   -15.97612     1.36188   -13.66486
  Hartree   159.72027   160.46130   160.10491    -1.98784     0.15711    -1.15478
  E(xc)    -809.81167  -809.80625  -809.82864     0.09767    -0.01826     0.11147
  Local    -941.00890  -942.33331  -942.18322    16.77726    -1.63487    13.87834
  n-local  2487.67430  2487.43746  2487.89269    -2.81827     0.41596    -2.92396
  augment  -372.02256  -372.02108  -372.04558     0.08313    -0.02569     0.10445
  Kinetic  1803.27173  1803.84450  1803.38917     2.59814    -0.33704     2.33918
  Fock        0.00000     0.00000     0.00000     0.00000     0.00000     0.00000
  -------------------------------------------------------------------------------------
  Total       4.57286     5.21010     4.65878    -1.22604    -0.08092    -1.31015
  in kB       5.65439     6.44235     5.76063    -1.51601    -0.10006    -1.62002
  external pressure =        5.95 kB  Pullay stress =        0.00 kB


 VOLUME and BASIS-vectors are now :
 -----------------------------------------------------------------------------
  energy-cutoff  :      250.00
  volume of cell :     1295.72
      direct lattice vectors                 reciprocal lattice vectors
    10.902411870  0.000000000  0.000000000     0.091722824  0.000069392  0.000075818
    -0.008247060 10.901053550  0.000000000     0.000000000  0.091734253 -0.000036443
    -0.009015190  0.004331210 10.902385090     0.000000000  0.000000000  0.091723049

  length of vectors
    10.902411870 10.901056670 10.902389678     0.091722881  0.091734260  0.091723049


 FORCES acting on ions
    electron-ion (+dipol)            ewald-force                    non-local-force                 convergence-correction
 -----------------------------------------------------------------------------------------------
   0.208E+01 0.119E+01 0.396E+01   -.196E+01 -.149E+01 -.345E+01   -.609E+00 0.224E+00 -.528E+00   -.173E-03 0.113E-02 0.325E-03
   -.509E+01 -.160E+01 -.273E+01   0.468E+01 0.137E+01 0.225E+01   0.837E+00 0.108E+00 0.608E+00   0.657E-03 0.151E-02 0.125E-03
   -.124E+01 0.922E+00 -.747E+00   0.111E+01 -.843E+00 0.694E+00   0.394E+00 -.550E+00 0.418E+00   0.215E-03 0.121E-02 -.183E-03
   -.126E+01 -.555E+00 -.258E+01   0.987E+00 0.214E+00 0.237E+01   -.549E-01 0.406E+00 0.490E+00   0.720E-03 0.291E-02 0.116E-02
   -.180E+01 0.111E+01 0.309E+01   0.181E+01 -.988E+00 -.270E+01   0.482E+00 0.204E-01 -.366E+00   0.126E-02 0.129E-02 0.735E-03
   0.114E+01 0.160E+01 0.946E+00   -.967E+00 -.137E+01 -.528E+00   -.783E+00 -.105E+00 -.242E+00   -.114E-02 0.246E-03 0.797E-03
   0.115E+01 0.516E+00 0.141E+01   -.956E+00 -.519E+00 -.126E+01   0.250E-01 -.199E+00 -.414E+00   -.926E-03 0.182E-02 -.292E-03
   -.109E+01 -.964E+00 0.267E+01   0.115E+01 0.994E+00 -.214E+01   -.902E-01 0.249E+00 -.614E+00   0.915E-03 0.519E-03 -.177E-02
   -.112E+01 0.178E+01 0.113E+01   0.709E+00 -.152E+01 -.869E+00   0.316E+00 0.218E+00 -.268E+00   0.653E-03 0.544E-03 -.104E-02
   0.410E+00 0.146E+01 -.222E+01   -.297E+00 -.121E+01 0.179E+01   0.116E+00 -.355E+00 0.112E-01   0.526E-03 0.181E-02 0.690E-04
   -.439E+00 0.761E+00 0.310E+01   0.347E+00 -.566E+00 -.253E+01   0.562E+00 0.201E+00 -.638E+00   0.661E-03 0.115E-02 -.224E-03
   0.564E+01 0.535E+00 -.194E+01   -.527E+01 -.323E+00 0.176E+01   -.672E+00 -.321E+00 0.186E-01   0.158E-02 0.943E-03 -.146E-04
   0.307E+01 -.919E+00 0.521E+00   -.307E+01 0.618E+00 -.335E+00   -.157E+00 -.256E+00 -.422E+00   0.168E-02 0.256E-02 0.449E-03
   -.297E+01 -.199E+01 0.167E+01   0.250E+01 0.159E+01 -.118E+01   0.448E+00 0.370E+00 -.343E+00   0.186E-04 0.144E-02 -.155E-03
   -.261E+01 -.109E+01 -.252E+00   0.203E+01 0.833E+00 0.262E+00   0.715E+00 0.519E+00 0.180E+00   -.108E-02 0.206E-02 -.782E-03
   -.219E+01 -.276E+01 0.310E+01   0.174E+01 0.247E+01 -.258E+01   0.774E+00 0.432E+00 -.764E+00   0.113E-02 -.487E-03 -.399E-03
   -.328E+00 -.359E+01 0.193E+01   0.325E+00 0.310E+01 -.205E+01   -.994E-01 0.757E+00 -.182E-01   -.826E-03 -.478E-03 0.108E-02
   0.158E+00 0.153E+00 -.558E-01   -.139E+00 -.121E+00 0.135E+00   0.254E+00 0.253E-01 -.879E-01   0.720E-03 -.117E-02 0.876E-03
   -.201E+01 0.909E+00 0.972E+00   0.205E+01 -.896E+00 -.122E+01   0.658E-01 -.180E+00 0.433E-01   -.518E-03 -.135E-02 0.120E-02
   -.312E+01 -.416E+01 -.318E+00   0.277E+01 0.362E+01 0.481E+00   0.430E+00 0.128E+01 -.241E+00   0.114E-02 -.264E-02 0.318E-03
   -.243E+01 0.315E+00 0.272E+01   0.246E+01 -.205E+00 -.248E+01   0.432E+00 -.821E-01 -.344E+00   0.347E-03 -.104E-02 0.200E-02
   0.296E+01 0.425E+00 -.273E+01   -.266E+01 -.285E+00 0.225E+01   -.683E+00 -.503E+00 0.368E+00   -.105E-02 -.616E-03 0.536E-04
   0.107E+01 0.171E+01 0.316E+01   -.820E+00 -.155E+01 -.303E+01   -.703E+00 -.735E+00 -.398E+00   -.146E-03 -.122E-02 0.115E-02
   -.332E-01 -.129E+01 -.919E+00   0.238E+00 0.106E+01 0.737E+00   -.120E+00 0.316E+00 -.208E+00   0.746E-03 -.893E-03 0.493E-04
   0.137E+01 0.294E+00 -.366E+01   -.135E+01 -.632E-01 0.334E+01   0.164E+00 -.155E+00 0.757E+00   0.755E-03 -.107E-02 -.166E-02
   0.150E+01 -.449E+00 -.246E+00   -.131E+01 0.708E+00 0.291E+00   -.758E+00 0.143E+00 0.238E+00   0.155E-02 -.210E-02 -.298E-03
   0.452E+01 0.251E+00 -.325E+01   -.413E+01 0.172E-01 0.285E+01   -.352E+00 -.247E+00 0.588E+00   0.207E-02 -.330E-03 -.953E-03
   0.384E+01 0.621E+01 0.242E+00   -.347E+01 -.559E+01 0.111E+00   -.883E+00 -.793E+00 0.219E+00   0.198E-02 -.406E-03 -.863E-04
   0.404E+01 -.172E+01 -.551E-01   -.381E+01 0.135E+01 0.171E+00   -.670E+00 0.350E+00 -.134E+00   0.292E-02 -.107E-02 -.210E-03
   -.127E+01 -.265E+01 -.165E+01   0.112E+01 0.223E+01 0.137E+01   0.687E-01 0.271E+00 0.273E+00   0.135E-03 -.110E-02 -.532E-03
   0.443E+01 -.157E+01 -.151E+01   -.424E+01 0.140E+01 0.142E+01   -.676E+00 0.655E+00 0.700E-01   0.123E-02 -.220E-02 -.496E-03
   0.548E+00 0.453E+01 -.190E+01   -.652E+00 -.451E+01 0.135E+01   -.145E+00 -.637E+00 0.778E+00   0.106E-02 -.258E-03 -.580E-03
   0.355E+00 -.172E+01 0.814E+00   -.450E+00 0.143E+01 -.605E+00   0.121E+00 0.593E+00 -.375E+00   -.109E-02 -.135E-03 -.159E-03
   -.172E+00 -.330E+00 -.104E+01   -.887E-01 -.212E+00 0.994E+00   0.797E+00 0.973E-01 0.107E-01   -.133E-03 0.166E-02 0.378E-03
   0.985E+00 -.228E+01 0.177E+01   -.107E+01 0.192E+01 -.134E+01   -.308E+00 0.644E+00 -.162E+00   0.705E-03 0.426E-03 -.502E-04
   0.424E+00 0.666E+00 -.333E+01   -.408E+00 -.632E+00 0.291E+01   -.184E+00 -.774E-01 0.145E+00   -.846E-03 0.259E-02 0.722E-03
   0.167E+01 0.299E+01 -.281E+01   -.157E+01 -.260E+01 0.257E+01   0.378E+00 -.429E+00 0.398E+00   0.240E-03 0.195E-02 0.112E-03
   0.307E+01 0.313E+01 -.355E+00   -.260E+01 -.263E+01 0.361E+00   -.956E+00 -.134E+00 0.301E-01   -.345E-03 0.132E-02 0.171E-02
   0.615E+00 0.261E+01 -.263E+00   -.484E+00 -.258E+01 0.215E+00   -.174E-02 -.531E+00 -.582E-01   0.295E-03 0.203E-02 -.168E-03
   -.530E+00 -.192E+01 0.199E+00   0.746E+00 0.165E+01 -.240E+00   -.335E+00 0.398E+00 -.136E+00   -.869E-03 -.625E-04 -.149E-02
   -.166E+01 0.149E+01 0.414E+01   0.144E+01 -.115E+01 -.382E+01   0.602E+00 -.240E+00 -.278E+00   -.153E-02 -.843E-03 -.263E-03
   -.118E+01 0.876E-01 -.273E+00   0.110E+01 0.207E+00 0.294E+00   -.765E-01 -.146E-02 0.101E+00   0.169E-03 0.658E-03 -.720E-03
   0.222E+01 0.744E+00 -.185E+01   -.200E+01 -.631E+00 0.178E+01   -.774E-01 -.209E+00 0.119E+01   0.169E-04 0.137E-02 -.415E-03
   -.463E+00 0.308E+01 -.789E+00   0.377E+00 -.274E+01 0.684E+00   0.201E+00 -.633E+00 0.327E+00   -.106E-02 0.259E-02 0.821E-05
   0.266E+01 -.246E+01 0.294E+01   -.249E+01 0.215E+01 -.283E+01   -.877E+00 0.504E+00 -.274E+00   0.435E-03 0.193E-02 0.468E-03
   -.150E+01 -.429E+01 -.221E+01   0.117E+01 0.395E+01 0.217E+01   0.411E+00 0.269E+00 0.235E+00   0.740E-05 0.594E-04 -.118E-03
   0.113E+01 0.149E+01 -.148E+01   -.140E+01 -.126E+01 0.124E+01   0.649E+00 0.269E+00 -.180E-01   0.136E-03 0.987E-03 0.428E-03
   -.255E+01 0.471E+01 0.397E+01   0.222E+01 -.399E+01 -.371E+01   0.442E+00 -.943E+00 -.757E+00   -.643E-03 0.842E-03 -.796E-03
   0.257E+01 -.111E+01 -.245E+01   -.234E+01 0.769E+00 0.206E+01   -.645E+00 0.256E+00 0.100E+01   -.106E-02 0.451E-03 -.113E-02
   -.321E+00 -.626E+01 0.261E+01   0.567E+00 0.541E+01 -.232E+01   -.633E+00 0.120E+01 -.404E+00   -.403E-03 -.216E-02 0.388E-03
   0.165E+01 -.896E+00 0.399E+00   -.147E+01 0.644E+00 -.186E+00   -.392E+00 0.104E+00 0.659E-01   0.257E-03 -.133E-02 -.912E-03
   -.172E+01 -.357E+01 0.212E+01   0.158E+01 0.335E+01 -.175E+01   0.457E+00 0.944E+00 -.969E-01   -.690E-03 -.305E-02 0.916E-03
   -.731E-01 0.702E+00 -.104E+01   0.183E+00 -.294E+00 0.794E+00   0.310E+00 -.532E+00 0.370E+00   -.648E-03 -.155E-02 0.674E-03
   -.136E+01 0.882E+00 -.106E+01   0.125E+01 -.719E+00 0.817E+00   -.630E-02 -.232E+00 -.456E-01   -.267E-03 -.344E-04 0.430E-03
   0.572E+01 -.894E-01 -.388E+01   -.479E+01 0.647E-01 0.346E+01   -.146E+01 -.245E+00 0.699E+00   0.868E-03 -.183E-02 -.176E-02
   0.114E+01 -.890E+00 -.391E-01   -.607E+00 0.789E+00 -.227E+00   -.736E+00 -.364E-03 0.249E+00   -.712E-03 -.140E-02 0.496E-03
   -.187E+01 0.484E+01 0.345E-01   0.207E+01 -.399E+01 -.205E+00   -.121E+00 -.129E+01 0.114E-01   -.250E-02 0.348E-03 0.539E-03
   -.320E+01 0.112E+01 0.428E+00   0.288E+01 -.629E+00 -.192E+00   0.150E+00 -.268E+00 -.327E+00   -.167E-02 -.125E-02 -.889E-03
   -.215E+01 -.329E+01 0.346E+01   0.217E+01 0.311E+01 -.320E+01   0.323E+00 0.373E+00 -.534E+00   -.124E-02 -.158E-02 0.862E-03
   0.322E+00 0.430E-01 -.232E+01   -.161E+00 0.185E+00 0.224E+01   0.110E-01 -.104E+00 -.667E-01   -.665E-03 -.140E-02 0.271E-03
   -.413E+01 -.238E+01 -.199E+01   0.393E+01 0.212E+01 0.174E+01   0.579E+00 -.856E-01 0.834E+00   -.255E-02 -.127E-02 -.695E-03
   -.206E+01 0.339E+01 -.295E+01   0.196E+01 -.332E+01 0.249E+01   0.770E+00 -.903E+00 -.166E+00   0.896E-04 0.753E-03 -.473E-04
   -.447E+01 -.160E+01 0.605E+01   0.393E+01 0.160E+01 -.566E+01   0.106E+01 0.238E+00 -.141E+01   -.104E-02 -.216E-02 0.194E-02
   -.407E+01 0.167E+01 -.256E+01   0.344E+01 -.153E+01 0.219E+01   0.945E+00 -.421E+00 0.308E+00   -.164E-02 -.194E-02 -.541E-03
 -----------------------------------------------------------------------------------------------
   -.418E-01 -.391E-01 0.950E-01   -.622E-13 0.977E-14 0.155E-13   0.184E-01 0.416E-01 -.107E+00   0.411E-03 0.674E-03 0.914E-03
 
 
 POSITION                                       TOTAL-FORCE (eV/Angst)
 -----------------------------------------------------------------------------------
      0.01973     10.89241     10.87085        -0.491158     -0.074308     -0.013119
      2.76324      2.76409      0.00879         0.424756     -0.115229      0.122972
      2.67535      0.11391      2.74824         0.256878     -0.469988      0.365533
      0.11857      2.70881      2.73392        -0.323600      0.068753      0.274527
      1.34376      1.37431      1.29483         0.495693      0.148215      0.016728
      4.24875      4.09562      1.37068        -0.607852      0.129348      0.177531
      3.98930      1.47013      4.20291         0.214140     -0.199726     -0.261304
      1.44817      4.08924      4.09805        -0.024247      0.279825     -0.084809
      0.03720      0.00499      5.54725        -0.091753      0.474942     -0.002861
      2.67703      2.81485      5.62555         0.230676     -0.097093     -0.421411
      2.67125      0.01927      8.15351         0.470975      0.397194     -0.070722
     10.79044      2.76408      8.34942        -0.303894     -0.107954     -0.164476
      1.28727      1.49269      6.95581        -0.156633     -0.554571     -0.235397
      4.12717      4.19896      6.82608        -0.018716     -0.025282      0.145481
      4.06505      1.36164      9.49340         0.133513      0.268961      0.189601
      1.33389      4.10104      9.61104         0.323067      0.140887     -0.245258
      0.02019      5.40821      0.09880        -0.103018      0.263921     -0.136264
      2.71051      8.18614      0.05480         0.273835      0.056442     -0.007204
      2.84876      5.47961      2.76895         0.111334     -0.167581     -0.201232
      0.11346      8.14083      2.82887         0.079146      0.733922     -0.078124
      1.37758      6.77987      1.43454         0.460563      0.026198     -0.103057
      4.07675      9.60664      1.43709        -0.386369     -0.362750     -0.111274
      4.24885      6.88757      4.08854        -0.455548     -0.570111     -0.261894
      1.43960      9.55277      4.21142         0.086017      0.080595     -0.390074
      0.03828      5.45620      5.40458         0.192283      0.074799      0.441252
      2.91758      8.18364      5.45610        -0.565917      0.399148      0.283016
      2.69743      5.45956      8.20100         0.042345      0.020663      0.189759
      0.05388      8.17498      8.14147        -0.509773     -0.169543      0.571746
      1.46499      6.83857      6.75286        -0.438786     -0.011968     -0.018876
      4.14022      9.61817      6.85990        -0.082079     -0.151897     -0.007864
      4.08435      6.78446      9.57997        -0.483523      0.488794     -0.021923
      1.39658      9.56498      9.51460        -0.247395     -0.616993      0.227044
      5.40903      0.02216      0.04323         0.024459      0.298800     -0.165530
      8.05457      2.76834      0.10358         0.536438     -0.443204     -0.031017
      8.28706      0.03878      2.69873        -0.389927      0.288425      0.260089
      5.48943      2.78118      2.90617        -0.168463     -0.040999     -0.271598
      6.71819      1.37630      1.45742         0.476486     -0.037911      0.152817
      9.60346      4.00444      1.41070        -0.492322      0.370258      0.038231
      9.63299      1.40587      4.11347         0.130582     -0.501732     -0.105919
      6.93861      4.17055      4.15812        -0.119251      0.136112     -0.177932
      5.44136      0.03245      5.39923         0.378121      0.104138      0.042923
      8.30250      2.76520      5.46172        -0.155482      0.293643      0.122264
      8.05141      0.06226      8.11964         0.135836     -0.094247      1.112718
      5.45245      2.76733      8.13169         0.114689     -0.285101      0.221560
      6.85033      1.43193      6.72767        -0.711426      0.200646     -0.160258
      9.55917      4.18046      6.86725         0.083778     -0.069354      0.198435
      9.36261      1.30855      9.65043         0.378826      0.499100     -0.253309
      6.81266      4.10362      9.53983         0.110834     -0.221338     -0.498550
      5.53059      5.48252     10.83935        -0.417629     -0.082992      0.610665
      8.28616      8.24040      0.06483        -0.387207      0.351324     -0.115378
      8.26163      5.50531      2.67822        -0.210460     -0.149509      0.278464
      5.50972      8.18053      2.65990         0.318317      0.723057      0.276311
      6.85106      6.84882      1.30155         0.419716     -0.125484      0.120914
      9.69032      9.53959      1.46023        -0.113978     -0.069097     -0.290808
      9.60166      6.85814      4.09539        -0.533809     -0.271693      0.276436
      6.89199      9.57580      4.05425        -0.208317     -0.102918     -0.016377
      5.53557      5.55805      5.49571         0.072316     -0.442166     -0.158172
      8.25650      8.24456      5.48117        -0.164033      0.220115     -0.092224
      8.12392      5.52927      8.22041         0.340573      0.190949     -0.270265
      5.41300      8.22807      8.27895         0.170911      0.122994     -0.144590
      6.79829      6.98172      6.82582         0.383045     -0.347963      0.577922
      9.49778      9.64769      6.94009         0.671699     -0.834463     -0.630623
      9.54381      6.79410      9.66645         0.509472      0.239273     -1.018982
      6.79532      9.59970      9.61541         0.311247     -0.276276     -0.056263
 -----------------------------------------------------------------------------------
    total drift:                               -0.022979      0.003200     -0.011051


--------------------------------------------------------------------------------------------------------



  FREE ENERGIE OF THE ION-ELECTRON SYSTEM (eV)
  ---------------------------------------------------
  free  energy   TOTEN  =      -345.31762828 eV

  energy  without entropy=     -345.31762828  energy(sigma->0) =     -345.31762828
 


--------------------------------------------------------------------------------------------------------


    POTLOK:  cpu time      0.3221: real time      0.3228


--------------------------------------------------------------------------------------------------------


 writing wavefunctions
     LOOP+:  cpu time    223.8767: real time    224.4137
    4ORBIT:  cpu time      0.0000: real time      0.0000

 total amount of memory used by VASP MPI-rank0    37773. kBytes
=======================================================================

   base      :      30000. kBytes
   nonlr-proj:       1195. kBytes
   fftplans  :        841. kBytes
   grid      :       1174. kBytes
   one-center:          9. kBytes
   wavefun   :       4554. kBytes
 
  
  
 General timing and accounting informations for this job:
 ========================================================
  
                  Total CPU time used (sec):      263.591
                            User time (sec):      263.383
                          System time (sec):        0.207
                         Elapsed time (sec):      265.214
  
                   Maximum memory used (kb):      215840.
                   Average memory used (kb):          N/A
  
                          Minor page faults:        19437
                          Major page faults:         8322
                 Voluntary context switches:         4595
