 vasp.6.4.2 20Jul23 (build Jun 27 2024 19:57:08) complex                        
  
 executed on                 T2A5 date 2026.01.13  22:58:47
 running   28 mpi-ranks, with    1 threads/rank, on    1 nodes
 distrk:  each k-point on   28 cores,    1 groups
 distr:  one band on NCORE=  28 cores,    1 groups


--------------------------------------------------------------------------------------------------------


 INCAR:
   ISTART = 1
   ICHARG = 1
   LWAVE = .T.
   LCHARG = .T.
   ENCUT = 250
   PREC = Normal
   ADDGRID = .F.
   EDIFF = 1E-4
   LREAL = Auto
   ALGO = Fast
   NSW = 0
   IBRION = -1
   ISMEAR = 0
   SIGMA = 0.1
   NPAR = 1
   KPAR = 1
   SYMPREC = 1E-4

 POTCAR:    PAW_PBE Si 05Jan2001                  
 POTCAR:    PAW_PBE Si 05Jan2001                  
   SHA256 =  79d9987ad8750f624c4d6acb2a16d13abf6a777132adc04dc6c8399be72b42bb Si/POTCAR             
   COPYR  = (c) Copyright 05Jan2001 Georg Kresse                                                    
   COPYR  = This file is part of the software VASP. Any use, copying, and all other rights are regul
   COPYR  = If you do not have a valid VASP license, you may not use, copy or distribute this file. 
   VRHFIN =Si: s2p2                                                                                 
   LEXCH  = PE                                                                                      
   EATOM  =   103.0669 eV,    7.5752 Ry                                                             
                                                                                                    
   TITEL  = PAW_PBE Si 05Jan2001                                                                    
   LULTRA =        F    use ultrasoft PP ?                                                          
   IUNSCR =        1    unscreen: 0-lin 1-nonlin 2-no                                               
   RPACOR =    1.500    partial core radius                                                         
   POMASS =   28.085; ZVAL   =    4.000    mass and valenz                                          
   RCORE  =    1.900    outmost cutoff radius                                                       
   RWIGS  =    2.480; RWIGS  =    1.312    wigner-seitz radius (au A)                               
   ENMAX  =  245.345; ENMIN  =  184.009 eV                                                          
   ICORE  =        2    local potential                                                             
   LCOR   =        T    correct aug charges                                                         
   LPAW   =        T    paw PP                                                                      
   EAUG   =  322.069                                                                                
   DEXC   =    0.000                                                                                
   RMAX   =    1.950    core radius for proj-oper                                                   
   RAUG   =    1.300    factor for augmentation sphere                                              
   RDEP   =    1.993    radius for radial grids                                                     
   RDEPT  =    1.837    core radius for aug-charge                                                  
                                                                                                    
   Atomic configuration                                                                             
    6 entries                                                                                       
     n  l   j            E        occ.                                                              
     1  0  0.50     -1785.8828   2.0000                                                             
     2  0  0.50      -139.4969   2.0000                                                             
     2  1  1.50       -95.5546   6.0000                                                             
     3  0  0.50       -10.8127   2.0000                                                             
     3  1  0.50        -4.0811   2.0000                                                             
     3  2  1.50        -4.0817   0.0000                                                             
   Description                                                                                      
     l       E           TYP  RCUT    TYP  RCUT                                                     
     0    -10.8127223     23  1.900                                                                 
     0     -7.6451159     23  1.900                                                                 
     1     -4.0811372     23  1.900                                                                 
     1      2.4879257     23  1.900                                                                 
     2     -4.0817478      7  1.900                                                                 
  local pseudopotential read in
  partial core-charges read in
  partial kinetic energy density read in
  atomic valenz-charges read in
  non local Contribution for L=           0  read in
    real space projection operators read in
  non local Contribution for L=           0  read in
    real space projection operators read in
  non local Contribution for L=           1  read in
    real space projection operators read in
  non local Contribution for L=           1  read in
    real space projection operators read in
    PAW grid and wavefunctions read in
 
   number of l-projection  operators is LMAX  =           4
   number of lm-projection operators is LMMAX =           8
 
 Optimization of the real space projectors (new method)

 maximal supplied QI-value         = 19.84
 optimisation between [QCUT,QGAM] = [  7.94, 16.07] = [ 17.64, 72.34] Ry 
 Optimized for a Real-space Cutoff    1.55 Angstroem

   l    n(q)    QCUT    max X(q) W(low)/X(q) W(high)/X(q)  e(spline) 
   0      7     7.937   159.560    0.97E-04    0.31E-03    0.13E-06
   0      7     7.937   115.863    0.95E-04    0.31E-03    0.13E-06
   1      7     7.937    88.339    0.40E-03    0.66E-03    0.12E-06
   1      7     7.937    48.592    0.39E-03    0.64E-03    0.12E-06
  PAW_PBE Si 05Jan2001                  :
 energy of atom  1       EATOM= -103.0669
 kinetic energy error for atom=    0.0052 (will be added to EATOM!!)
 
 
 POSCAR: Si
  positions in cartesian coordinates
  No initial velocities read in
 exchange correlation table for  LEXCH =        8
   RHO(1)=    0.500       N(1)  =     2000
   RHO(2)=  100.500       N(2)  =     4000
 


--------------------------------------------------------------------------------------------------------


 ion  position               nearest neighbor table
   1  0.998  0.006  0.001-  54 2.32  47 2.32   5 2.39  32 2.43
   2  0.261  0.255  0.002-   6 2.32  16 2.34  15 2.34   5 2.37
   3  0.251  0.004  0.256-  24 2.31   7 2.35   5 2.37  22 2.38
   4  0.004  0.256  0.251-   8 2.30  38 2.33  39 2.33   5 2.39
   5  0.131  0.129  0.124-   3 2.37   2 2.37   1 2.39   4 2.39
   6  0.378  0.379  0.131-  19 2.30   2 2.32  36 2.35  49 2.35
   7  0.368  0.133  0.384-   3 2.35  10 2.36  41 2.37  36 2.38
   8  0.136  0.373  0.368-  19 2.29   4 2.30  10 2.33  25 2.39
   9  0.008  0.007  0.505-  39 2.33  24 2.36  13 2.37  62 2.40
  10  0.249  0.261  0.512-   8 2.33  14 2.34  13 2.35   7 2.36
  11  0.253  0.008  0.748-  13 2.32  15 2.33  30 2.33  32 2.43
  12  0.996  0.254  0.765-  13 2.35  16 2.36  46 2.37  47 2.38
  13  0.124  0.136  0.636-  11 2.32  10 2.35  12 2.35   9 2.37
  14  0.381  0.385  0.628-  57 2.31  44 2.32  10 2.34  27 2.35
  15  0.378  0.135  0.867-  44 2.31  11 2.33   2 2.34  33 2.41
  16  0.133  0.377  0.881-   2 2.34  27 2.36  12 2.36  17 2.37
  17  0.005  0.498  0.009-  63 2.36  16 2.37  38 2.38  21 2.39
  18  0.253  0.746  0.007-  31 2.31  22 2.33  21 2.33  32 2.40
  19  0.260  0.501  0.257-   8 2.29   6 2.30  21 2.32  23 2.33
  20  0.013  0.754  0.261-  24 2.34  21 2.37  54 2.38  55 2.39
  21  0.134  0.623  0.136-  19 2.32  18 2.33  20 2.37  17 2.39
  22  0.373  0.872  0.131-  18 2.33   3 2.38  52 2.40  33 2.41
  23  0.388  0.626  0.375-  57 2.30  19 2.33  52 2.34  26 2.38
  24  0.136  0.880  0.385-   3 2.31  20 2.34  26 2.35   9 2.36
  25  0.011  0.497  0.499-  46 2.36  29 2.38   8 2.39  55 2.39
  26  0.264  0.753  0.502-  30 2.34  24 2.35  29 2.37  23 2.38
  27  0.253  0.505  0.755-  31 2.32  14 2.35  29 2.35  16 2.36
  28  0.006  0.748  0.752-  29 2.35  32 2.35  63 2.38  62 2.38
  29  0.133  0.629  0.624-  28 2.35  27 2.35  26 2.37  25 2.38
  30  0.379  0.882  0.629-  11 2.33  41 2.33  60 2.34  26 2.34
  31  0.375  0.628  0.879-  18 2.31  27 2.32  49 2.35  60 2.37
  32  0.129  0.874  0.877-  28 2.35  18 2.40   1 2.43  11 2.43
  33  0.496  0.007  0.005-  64 2.36  15 2.41  22 2.41  37 2.44
  34  0.750  0.253  0.008-  47 2.30  37 2.33  38 2.34  48 2.38
  35  0.764  0.007  0.252-  39 2.34  54 2.35  37 2.36  56 2.38
  36  0.499  0.259  0.264-  40 2.33   6 2.35   7 2.38  37 2.42
  37  0.629  0.132  0.136-  34 2.33  35 2.36  36 2.42  33 2.44
  38  0.872  0.378  0.135-  51 2.29   4 2.33  34 2.34  17 2.38
  39  0.887  0.130  0.379-   9 2.33   4 2.33  35 2.34  42 2.39
  40  0.632  0.384  0.377-  51 2.31  36 2.33  57 2.37  42 2.38
  41  0.499  0.004  0.499-  30 2.33   7 2.37  56 2.39  45 2.40
  42  0.760  0.259  0.502-  46 2.36  40 2.38  45 2.38  39 2.39
  43  0.742  0.002  0.758-  64 2.34  47 2.35  45 2.42  62 2.49
  44  0.503  0.257  0.747-  15 2.31  45 2.32  14 2.32  48 2.32
  45  0.626  0.136  0.623-  44 2.32  42 2.38  41 2.40  43 2.42
  46  0.882  0.384  0.632-  59 2.32  42 2.36  25 2.36  12 2.37
  47  0.865  0.126  0.885-  34 2.30   1 2.32  43 2.35  12 2.38
  48  0.627  0.374  0.874-  44 2.32  59 2.37  34 2.38  49 2.40
  49  0.500  0.502  0.002-  31 2.35   6 2.35  53 2.36  48 2.40
  50  0.758  0.758  0.001-  64 2.35  53 2.37  54 2.38  63 2.41
  51  0.754  0.507  0.253-  38 2.29  40 2.31  53 2.33  55 2.35
  52  0.513  0.747  0.249-  53 2.34  23 2.34  56 2.37  22 2.40
  53  0.634  0.625  0.121-  51 2.33  52 2.34  49 2.36  50 2.37
  54  0.888  0.878  0.131-   1 2.32  35 2.35  50 2.38  20 2.38
  55  0.879  0.628  0.381-  51 2.35  58 2.36  25 2.39  20 2.39
  56  0.631  0.882  0.373-  58 2.34  52 2.37  35 2.38  41 2.39
  57  0.505  0.506  0.505-  23 2.30  14 2.31  61 2.35  40 2.37
  58  0.748  0.753  0.500-  56 2.34  61 2.36  55 2.36  62 2.38
  59  0.754  0.503  0.753-  46 2.32  63 2.32  61 2.36  48 2.37
  60  0.499  0.760  0.758-  64 2.31  30 2.34  31 2.37  61 2.41
  61  0.628  0.630  0.632-  57 2.35  59 2.36  58 2.36  60 2.41
  62  0.879  0.875  0.626-  28 2.38  58 2.38   9 2.40  43 2.49
  63  0.881  0.620  0.879-  59 2.32  17 2.36  28 2.38  50 2.41
  64  0.621  0.877  0.885-  60 2.31  43 2.34  50 2.35  33 2.36
 
  LATTYP: Found a base centered monoclinic cell.
 ALAT       =    26.6672899323
 B/A-ratio  =     0.5765642877
 C/A-ratio  =     0.4079821406
 COS(beta)  =    -0.8165858832
  
  Lattice vectors:
  
 A1 = (  10.8869929100, -10.8797741400,   0.0000000000)
 A2 = (   0.0216461400, -10.8871415800, -10.8787557400)
 A3 = (  -0.0092001600,  10.8797741400,   0.0000000000)


Analysis of symmetry for initial positions (statically):
=====================================================================
 Subroutine PRICEL returns:
 Original cell was already a primitive cell.
 

 Routine SETGRP: Setting up the symmetry group for a 
 base centered monoclinic supercell.


 Subroutine GETGRP returns: Found  1 space group operations
 (whereof  1 operations were pure point group operations)
 out of a pool of  4 trial point group operations.


The static configuration has the point symmetry C_1 .


Analysis of symmetry for dynamics (positions and initial velocities):
=====================================================================
 Subroutine PRICEL returns:
 Original cell was already a primitive cell.
 

 Routine SETGRP: Setting up the symmetry group for a 
 base centered monoclinic supercell.


 Subroutine GETGRP returns: Found  1 space group operations
 (whereof  1 operations were pure point group operations)
 out of a pool of  4 trial point group operations.


The dynamic configuration has the point symmetry C_1 .


 Subroutine INISYM returns: Found  1 space group operations
 (whereof  1 operations are pure point group operations),
 and found     1 'primitive' translations


----------------------------------------------------------------------------------------

                                     Primitive cell                                     

  volume of cell :    1287.4782

  direct lattice vectors                    reciprocal lattice vectors
    10.877792750  0.000000000  0.000000000     0.091930415  0.000077738  0.000105122
    -0.009200160 10.879774140  0.000000000     0.000000000  0.091913673 -0.000062247
    -0.012445980  0.007367440 10.878755740     0.000000000  0.000000000  0.091922277

  length of vectors
    10.877792750 10.879778030 10.878765354     0.091930508  0.091913694  0.091922277

  position of ions in fractional coordinates (direct lattice)
     0.998016450  0.006038247  0.000674759
     0.260982977  0.254760932  0.002288890
     0.251234891  0.003719552  0.255662321
     0.003978329  0.256017990  0.251248817
     0.131065295  0.129244818  0.124462797
     0.377984392  0.378689030  0.130731033
     0.367942324  0.132940974  0.383771485
     0.136331878  0.372777854  0.368379110
     0.008208503  0.006887752  0.505126036
     0.249132134  0.261238030  0.512162524
     0.252911551  0.007955632  0.748233286
     0.996368854  0.254010802  0.764644574
     0.124265784  0.136250548  0.636376858
     0.380868814  0.385352733  0.628111874
     0.377924629  0.134814816  0.867438075
     0.132542118  0.377166316  0.880803042
     0.004686615  0.498132114  0.009254643
     0.252892072  0.746101682  0.007116147
     0.260483730  0.501114797  0.256552131
     0.013053083  0.754240732  0.260533393
     0.133946049  0.623422799  0.135972056
     0.373462092  0.872191348  0.130959847
     0.387946808  0.625692045  0.375260764
     0.136032185  0.880441624  0.384769784
     0.010744230  0.497343575  0.498594028
     0.263973845  0.752599605  0.502203521
     0.253485368  0.505490936  0.754506275
     0.005856786  0.747929689  0.752063920
     0.132650938  0.629180277  0.624377184
     0.378972424  0.882452301  0.629062667
     0.375024535  0.628403196  0.879450406
     0.128702334  0.874103167  0.877043471
     0.496199247  0.007379678  0.004888408
     0.750436780  0.253056224  0.008484264
     0.763688882  0.006766466  0.252178327
     0.499396571  0.259477485  0.263552980
     0.628935636  0.131557614  0.136101728
     0.871926738  0.378113303  0.134844259
     0.886863001  0.129931084  0.379013286
     0.631862662  0.384309300  0.376803745
     0.499351494  0.003724315  0.499343885
     0.759636015  0.259346058  0.502450748
     0.742257633  0.002104706  0.758171010
     0.502510336  0.257201865  0.747364723
     0.625588831  0.135619678  0.623371949
     0.882246585  0.383583284  0.631699333
     0.865255253  0.126471592  0.884726749
     0.627340476  0.374478277  0.874392784
     0.500065849  0.501950527  0.001826640
     0.758288374  0.758060380  0.001290418
     0.754038926  0.506517699  0.252822581
     0.512703567  0.747473526  0.248945766
     0.634030555  0.624605620  0.120978262
     0.887774801  0.878181397  0.130588729
     0.878794191  0.627917290  0.380544810
     0.630995323  0.881614142  0.373163663
     0.504938356  0.506422703  0.505148097
     0.748220303  0.752989244  0.500176901
     0.754382820  0.502696912  0.753045003
     0.499155643  0.759535109  0.757760156
     0.627785421  0.630493155  0.632212056
     0.879336522  0.875352610  0.626415683
     0.880968830  0.620251565  0.878911609
     0.621008715  0.877189067  0.885222580

  ion indices of the primitive-cell ions
   primitive index   ion index
                 1           1
                 2           2
                 3           3
                 4           4
                 5           5
                 6           6
                 7           7
                 8           8
                 9           9
                10          10
                11          11
                12          12
                13          13
                14          14
                15          15
                16          16
                17          17
                18          18
                19          19
                20          20
                21          21
                22          22
                23          23
                24          24
                25          25
                26          26
                27          27
                28          28
                29          29
                30          30
                31          31
                32          32
                33          33
                34          34
                35          35
                36          36
                37          37
                38          38
                39          39
                40          40
                41          41
                42          42
                43          43
                44          44
                45          45
                46          46
                47          47
                48          48
                49          49
                50          50
                51          51
                52          52
                53          53
                54          54
                55          55
                56          56
                57          57
                58          58
                59          59
                60          60
                61          61
                62          62
                63          63
                64          64

----------------------------------------------------------------------------------------

 
 
 KPOINTS: K-Points                                

Automatic generation of k-mesh.
 Grid dimensions read from file:
 generate k-points for:    2    2    2

 Generating k-lattice:

  Cartesian coordinates                     Fractional coordinates (reciprocal lattice)
     0.045965207  0.000038869  0.000052561     0.500000000 -0.000000000  0.000000000
     0.000000000  0.045956836 -0.000031123     0.000000000  0.500000000  0.000000000
     0.000000000  0.000000000  0.045961139     0.000000000  0.000000000  0.500000000

  Length of vectors
     0.045965254  0.045956847  0.045961139

  Shift w.r.t. Gamma in fractional coordinates (k-lattice)
     0.500000000  0.500000000  0.500000000

 
 Subroutine IBZKPT returns following result:
 ===========================================
 
 Found      4 irreducible k-points:
 
 Following reciprocal coordinates:
            Coordinates               Weight
  0.250000  0.250000  0.250000      2.000000
  0.250000 -0.250000  0.250000      2.000000
 -0.250000  0.250000  0.250000      2.000000
 -0.250000 -0.250000  0.250000      2.000000
 
 Following cartesian coordinates:
            Coordinates               Weight
  0.022983  0.022998  0.022991      2.000000
  0.022983 -0.022959  0.023022      2.000000
 -0.022983  0.022959  0.022939      2.000000
 -0.022983 -0.022998  0.022970      2.000000
 


--------------------------------------------------------------------------------------------------------




 Dimension of arrays:
   k-points           NKPTS =      4   k-points in BZ     NKDIM =      4   number of bands    NBANDS=    161
   number of dos      NEDOS =    301   number of ions     NIONS =     64
   non local maximal  LDIM  =      4   non local SUM 2l+1 LMDIM =      8
   total plane-waves  NPLWV =  74088
   max r-space proj   IRMAX =    950   max aug-charges    IRDMAX=   2123
   dimension x,y,z NGX =    42 NGY =   42 NGZ =   42
   dimension x,y,z NGXF=    84 NGYF=   84 NGZF=   84
   support grid    NGXF=    84 NGYF=   84 NGZF=   84
   ions per type =              64
   NGX,Y,Z   is equivalent  to a cutoff of   6.42,  6.42,  6.42 a.u.
   NGXF,Y,Z  is equivalent  to a cutoff of  12.84, 12.84, 12.84 a.u.

 SYSTEM =  unknown system                          
 POSCAR =  Si                                      

 Startparameter for this run:
   NWRITE =      2    write-flag & timer
   PREC   = normal    normal or accurate (medium, high low for compatibility)
   ISTART =      1    job   : 0-new  1-cont  2-samecut
   ICHARG =      1    charge: 1-file 2-atom 10-const
   ISPIN  =      1    spin polarized calculation?
   LNONCOLLINEAR =      F non collinear calculations
   LSORBIT =      F    spin-orbit coupling
   INIWAV =      1    electr: 0-lowe 1-rand  2-diag
   LASPH  =      F    aspherical Exc in radial PAW
 Electronic Relaxation 1
   ENCUT  =  250.0 eV  18.37 Ry    4.29 a.u.  14.02 14.03 14.03*2*pi/ulx,y,z
   ENINI  =  250.0     initial cutoff
   ENAUG  =  322.1 eV  augmentation charge cutoff
   NELM   =     60;   NELMIN=  2; NELMDL=  0     # of ELM steps 
   EDIFF  = 0.1E-03   stopping-criterion for ELM
   LREAL  =      T    real-space projection
   NLSPLINE    = F    spline interpolate recip. space projectors
   LCOMPAT=      F    compatible to vasp.4.4
   GGA_COMPAT  = T    GGA compatible to vasp.4.4-vasp.4.6
   LMAXPAW     = -100 max onsite density
   LMAXMIX     =    2 max onsite mixed and CHGCAR
   VOSKOWN=      0    Vosko Wilk Nusair interpolation
   ROPT   =   -0.00050
 Ionic relaxation
   EDIFFG = 0.1E-02   stopping-criterion for IOM
   NSW    =      0    number of steps for IOM
   NBLOCK =      1;   KBLOCK =      1    inner block; outer block 
   IBRION =     -1    ionic relax: 0-MD 1-quasi-New 2-CG
   NFREE  =      0    steps in history (QN), initial steepest desc. (CG)
   ISIF   =      2    stress and relaxation
   IWAVPR =     10    prediction:  0-non 1-charg 2-wave 3-comb
   ISYM   =      2    0-nonsym 1-usesym 2-fastsym
   LCORR  =      T    Harris-Foulkes like correction to forces

   POTIM  = 0.5000    time-step for ionic-motion
   TEIN   =    0.0    initial temperature
   TEBEG  =    0.0;   TEEND  =   0.0 temperature during run
   SMASS  =  -3.00    Nose mass-parameter (am)
   estimated Nose-frequenzy (Omega)   =  0.10E-29 period in steps = 0.13E+47 mass=  -0.270E-26a.u.
   SCALEE = 1.0000    scale energy and forces
   NPACO  =    256;   APACO  = 10.0  distance and # of slots for P.C.
   PSTRESS=    0.0 pullay stress

  Mass of Ions in am
   POMASS =  28.09
  Ionic Valenz
   ZVAL   =   4.00
  Atomic Wigner-Seitz radii
   RWIGS  =  -1.00
  virtual crystal weights 
   VCA    =   1.00
   NELECT =     256.0000    total number of electrons
   NUPDOWN=      -1.0000    fix difference up-down

 DOS related values:
   EMIN   =  10.00;   EMAX   =-10.00  energy-range for DOS
   EFERMI =   0.00;   METHOD = LEGACY      
   ISMEAR =     0;   SIGMA  =   0.10  broadening in eV -4-tet -1-fermi 0-gaus

 Electronic relaxation 2 (details)
   IALGO  =     68    algorithm
   LDIAG  =      T    sub-space diagonalisation (order eigenvalues)
   LSUBROT=      F    optimize rotation matrix (better conditioning)
   TURBO    =      0    0=normal 1=particle mesh
   IRESTART =      0    0=no restart 2=restart with 2 vectors
   NREBOOT  =      0    no. of reboots
   NMIN     =      0    reboot dimension
   EREF     =   0.00    reference energy to select bands
   IMIX   =      4    mixing-type and parameters
     AMIX     =   0.40;   BMIX     =  1.00
     AMIX_MAG =   1.60;   BMIX_MAG =  1.00
     AMIN     =   0.10
     WC   =   100.;   INIMIX=   1;  MIXPRE=   1;  MAXMIX= -45

 Intra band minimization:
   WEIMIN = 0.0000     energy-eigenvalue tresh-hold
   EBREAK =  0.16E-06  absolut break condition
   DEPER  =   0.30     relativ break condition  

   TIME   =   0.40     timestep for ELM

  volume/ion in A,a.u.               =      20.12       135.76
  Fermi-wavevector in a.u.,A,eV,Ry     =   0.955524  1.805678 12.422470  0.913026
  Thomas-Fermi vector in A             =   2.084369
 
 Write flags
   LWAVE        =      T    write WAVECAR
   LDOWNSAMPLE  =      F    k-point downsampling of WAVECAR
   LCHARG       =      T    write CHGCAR
   LVTOT        =      F    write LOCPOT, total local potential
   LVHAR        =      F    write LOCPOT, Hartree potential only
   LELF         =      F    write electronic localiz. function (ELF)
   LORBIT       =      0    0 simple, 1 ext, 2 COOP (PROOUT), +10 PAW based schemes


 Dipole corrections
   LMONO  =      F    monopole corrections only (constant potential shift)
   LDIPOL =      F    correct potential (dipole corrections)
   IDIPOL =      0    1-x, 2-y, 3-z, 4-all directions 
   EPSILON=  1.0000000 bulk dielectric constant

 Exchange correlation treatment:
   GGA     =    --    GGA type
   LEXCH   =     8    internal setting for exchange type
   LIBXC   =     F    Libxc                    
   VOSKOWN =     0    Vosko Wilk Nusair interpolation
   LHFCALC =     F    Hartree Fock is set to
   LHFONE  =     F    Hartree Fock one center treatment
   AEXX    =    0.0000 exact exchange contribution

 Linear response parameters
   LEPSILON=     F    determine dielectric tensor
   LRPA    =     F    only Hartree local field effects (RPA)
   LNABLA  =     F    use nabla operator in PAW spheres
   LVEL    =     F    velocity operator in full k-point grid
   CSHIFT  =0.1000    complex shift for real part using Kramers Kronig
   OMEGAMAX=  -1.0    maximum frequency
   DEG_THRESHOLD= 0.2000000E-02 threshold for treating states as degnerate
   RTIME   =   -0.100 relaxation time in fs
  (WPLASMAI=    0.000 imaginary part of plasma frequency in eV, 0.658/RTIME)
   DFIELD  = 0.0000000 0.0000000 0.0000000 field for delta impulse in time
 
  Optional k-point grid parameters
   LKPOINTS_OPT  =     F    use optional k-point grid
   KPOINTS_OPT_MODE=     1    mode for optional k-point grid
 
 Orbital magnetization related:
   ORBITALMAG=     F  switch on orbital magnetization
   LCHIMAG   =     F  perturbation theory with respect to B field
   DQ        =  0.001000  dq finite difference perturbation B field
   LLRAUG    =     F  two centre corrections for induced B field
   LBONE     =     F  B-component reconstruction in AE one-centre
   LVGVCALC  =     T  calculate vGv susceptibility
   LVGVAPPL  =     F  apply vGv susceptibility instead of pGv for G=0

 Random number generation:
   RANDOM_GENERATOR = DEFAULT
   PCG_SEED         = not used


--------------------------------------------------------------------------------------------------------


 Static calculation
 charge density and potential will be updated during run
 non-spin polarized calculation
 RMM-DIIS sequential band-by-band and
  variant of blocked Davidson during initial phase
 perform sub-space diagonalisation
    before iterative eigenvector-optimisation
 modified Broyden-mixing scheme, WC =      100.0
 initial mixing is a Kerker type mixing with AMIX =  0.4000 and BMIX =      1.0000
 Hartree-type preconditioning will be used
 using additional bands           33
 real space projection scheme for non local part
 use partial core corrections
 calculate Harris-corrections to forces 
   (improved forces if not selfconsistent)
 use gradient corrections 
 use of overlap-Matrix (Vanderbilt PP)
 Gauss-broadening in eV      SIGMA  =   0.10


--------------------------------------------------------------------------------------------------------


  energy-cutoff  :      250.00
  volume of cell :     1287.48
      direct lattice vectors                 reciprocal lattice vectors
    10.877792750  0.000000000  0.000000000     0.091930415  0.000077738  0.000105122
    -0.009200160 10.879774140  0.000000000     0.000000000  0.091913673 -0.000062247
    -0.012445980  0.007367440 10.878755740     0.000000000  0.000000000  0.091922277

  length of vectors
    10.877792750 10.879778030 10.878765354     0.091930508  0.091913694  0.091922277


 
 old parameters found on file WAVECAR:
  energy-cutoff  :      250.00
  volume of cell :     1287.81
      direct lattice vectors                 reciprocal lattice vectors
    10.878787600  0.000000000  0.000000000     0.091922008  0.000077520  0.000104677
    -0.009175870 10.880601470  0.000000000     0.000000000  0.091906684 -0.000062187
    -0.012395620  0.007361610 10.879770220     0.000000000  0.000000000  0.091913706

  length of vectors

 
 k-points in units of 2pi/SCALE and weight: K-Points                                
   0.02298260  0.02299785  0.02299129       0.250
   0.02298260 -0.02295898  0.02302241       0.250
  -0.02298260  0.02295898  0.02293873       0.250
  -0.02298260 -0.02299785  0.02296985       0.250
 
 k-points in reciprocal lattice and weights: K-Points                                
   0.25000000  0.25000000  0.25000000       0.250
   0.25000000 -0.25000000  0.25000000       0.250
  -0.25000000  0.25000000  0.25000000       0.250
  -0.25000000 -0.25000000  0.25000000       0.250
 
 position of ions in fractional coordinates (direct lattice) 
   0.99801645  0.00603825  0.00067476
   0.26098298  0.25476093  0.00228889
   0.25123489  0.00371955  0.25566232
   0.00397833  0.25601799  0.25124882
   0.13106529  0.12924482  0.12446280
   0.37798439  0.37868903  0.13073103
   0.36794232  0.13294097  0.38377148
   0.13633188  0.37277785  0.36837911
   0.00820850  0.00688775  0.50512604
   0.24913213  0.26123803  0.51216252
   0.25291155  0.00795563  0.74823329
   0.99636885  0.25401080  0.76464457
   0.12426578  0.13625055  0.63637686
   0.38086881  0.38535273  0.62811187
   0.37792463  0.13481482  0.86743808
   0.13254212  0.37716632  0.88080304
   0.00468662  0.49813211  0.00925464
   0.25289207  0.74610168  0.00711615
   0.26048373  0.50111480  0.25655213
   0.01305308  0.75424073  0.26053339
   0.13394605  0.62342280  0.13597206
   0.37346209  0.87219135  0.13095985
   0.38794681  0.62569204  0.37526076
   0.13603219  0.88044162  0.38476978
   0.01074423  0.49734358  0.49859403
   0.26397385  0.75259961  0.50220352
   0.25348537  0.50549094  0.75450627
   0.00585679  0.74792969  0.75206392
   0.13265094  0.62918028  0.62437718
   0.37897242  0.88245230  0.62906267
   0.37502454  0.62840320  0.87945041
   0.12870233  0.87410317  0.87704347
   0.49619925  0.00737968  0.00488841
   0.75043678  0.25305622  0.00848426
   0.76368888  0.00676647  0.25217833
   0.49939657  0.25947748  0.26355298
   0.62893564  0.13155761  0.13610173
   0.87192674  0.37811330  0.13484426
   0.88686300  0.12993108  0.37901329
   0.63186266  0.38430930  0.37680374
   0.49935149  0.00372431  0.49934389
   0.75963602  0.25934606  0.50245075
   0.74225763  0.00210471  0.75817101
   0.50251034  0.25720186  0.74736472
   0.62558883  0.13561968  0.62337195
   0.88224658  0.38358328  0.63169933
   0.86525525  0.12647159  0.88472675
   0.62734048  0.37447828  0.87439278
   0.50006585  0.50195053  0.00182664
   0.75828837  0.75806038  0.00129042
   0.75403893  0.50651770  0.25282258
   0.51270357  0.74747353  0.24894577
   0.63403056  0.62460562  0.12097826
   0.88777480  0.87818140  0.13058873
   0.87879419  0.62791729  0.38054481
   0.63099532  0.88161414  0.37316366
   0.50493836  0.50642270  0.50514810
   0.74822030  0.75298924  0.50017690
   0.75438282  0.50269691  0.75304500
   0.49915564  0.75953511  0.75776016
   0.62778542  0.63049316  0.63221206
   0.87933652  0.87535261  0.62641568
   0.88096883  0.62025157  0.87891161
   0.62100871  0.87718907  0.88522258
 
 position of ions in cartesian coordinates  (Angst):
  10.85615215  0.06569973  0.00734054
   2.83654641  2.77175826  0.02490028
   2.72966489  0.04235146  2.78128794
   0.03779299  2.78726897  2.73327451
   1.42296298  1.40707140  1.35400037
   4.10652480  4.12101427  1.42219098
   3.99640085  1.44919518  4.17495624
   1.47497546  4.05845287  4.00750636
   0.08294024  0.07865867  5.49514276
   2.70122993  2.84598409  5.57169100
   2.74173375  0.09206804  8.13984715
  10.82644021  2.76921363  8.31838155
   1.34256358  1.48706366  6.92298840
   4.13164925  4.19717828  6.83307566
   4.09894936  1.47314555  9.43664694
   1.42733324  4.10997360  9.58204115
   0.04628195  5.41963307  0.10067900
   2.74395473  8.11747021  0.07741483
   2.82568465  5.45390594  2.79096797
   0.13180700  8.20788828  2.83427914
   1.44960947  6.78370101  1.47920679
   4.05278901  9.49020971  1.42468019
   4.20957802  6.81015284  4.08237019
   1.46684088  9.58184078  4.18581650
   0.10609237  5.41465913  5.42408264
   2.85827833  8.19181368  5.46334944
   2.74332013  5.50518599  8.20808947
   0.04746766  8.14284688  8.18151969
   1.42938987  6.84993937  6.79244687
   4.10643548  9.60551631  6.84341910
   4.06271214  6.84336414  9.56732615
   1.38103976  9.51650660  9.54114169
   5.39742384  0.08032524  0.05317980
   8.16066201  2.75325707  0.09229824
   8.30404853  0.07547553  2.74338642
   5.42666499  2.82499814  2.86712849
   6.83852723  1.43231985  1.48061746
   9.47948138  4.11478079  1.46693776
   9.64119934  1.41641320  4.12319296
   6.86504569  4.18397446  4.09915590
   5.42559297  0.04419859  5.43224016
   8.25452362  2.82532831  5.46603896
   8.06466915  0.02848451  8.24795723
   5.45453531  2.80380436  8.13039827
   6.79601945  1.48010412  6.78151117
   9.58550436  4.17795350  6.87210275
   9.39989247  1.38250053  9.62472620
   6.80975175  4.08068111  9.51230552
   5.43497191  5.46112182  0.01987157
   8.24151344  8.24753523  0.01403814
   8.19447249  5.51266082  2.75039510
   5.56710789  8.13417723  2.70822018
   6.88960081  6.79645937  1.31609296
   9.64732558  9.55537736  1.42064289
   9.54882789  6.83440193  4.13985404
   6.85108097  9.59451200  4.05955634
   5.48166856  5.51348628  5.49538276
   8.12583257  8.19603793  5.44130233
   8.19202269  5.47477688  8.19219265
   5.41329272  8.26915319  8.24348765
   6.81525056  6.86428091  6.87768053
   9.54939070  9.52825377  6.81462321
   9.56635102  6.75467227  9.56146471
   6.73611635  9.55014075  9.63012022
 


--------------------------------------------------------------------------------------------------------


 k-point   1 :   0.2500 0.2500 0.2500  plane waves:   11549
 k-point   2 :   0.2500-0.2500 0.2500  plane waves:   11549
 k-point   3 :  -0.2500 0.2500 0.2500  plane waves:   11572
 k-point   4 :  -0.2500-0.2500 0.2500  plane waves:   11552

 maximum and minimum number of plane-waves per node :       426      400

 maximum number of plane-waves:     11572
 maximum index in each direction: 
   IXMAX=   14   IYMAX=   14   IZMAX=   13
   IXMIN=  -14   IYMIN=  -14   IZMIN=  -14


 real space projection operators:
  total allocation   :       3496.50 KBytes
  max/ min on nodes  :        172.19         77.44


 parallel 3D FFT for wavefunctions:
    minimum data exchange during FFTs selected (reduces bandwidth)
 parallel 3D FFT for charge:
    minimum data exchange during FFTs selected (reduces bandwidth)


 total amount of memory used by VASP MPI-rank0    37861. kBytes
=======================================================================

   base      :      30000. kBytes
   nonlr-proj:       1201. kBytes
   fftplans  :        841. kBytes
   grid      :       1174. kBytes
   one-center:          9. kBytes
   wavefun   :       4636. kBytes
 
     INWAV:  cpu time     17.1335: real time     17.1722
 Broyden mixing: mesh for mixing (old mesh)
   NGX = 29   NGY = 29   NGZ = 29
  (NGX  = 84   NGY  = 84   NGZ  = 84)
  gives a total of  24389 points

 initial charge density was supplied:
 number of electron     256.0000052 magnetization 
 keeping initial charge density in first step


--------------------------------------------------------------------------------------------------------


 Maximum index for non-local projection operator          112
 Maximum index for augmentation-charges          186 (set IRDMAX)


--------------------------------------------------------------------------------------------------------


 First call to EWALD:  gamma=   0.163
 Maximum number of real-space cells 3x 3x 3
 Maximum number of reciprocal cells 3x 3x 3

    FEWALD:  cpu time      0.0988: real time      0.0990


--------------------------------------- Ionic step        1  -------------------------------------------




--------------------------------------- Iteration      1(   1)  ---------------------------------------


    POTLOK:  cpu time      0.4479: real time      0.4559
    SETDIJ:  cpu time      0.1168: real time      0.1171
     EDDAV:  cpu time     39.3037: real time     39.3935
       DOS:  cpu time      0.1393: real time      0.1396
    CHARGE:  cpu time      0.3831: real time      0.3840
    MIXING:  cpu time      0.2143: real time      0.2148
    --------------------------------------------
      LOOP:  cpu time     40.6052: real time     40.7050

 eigenvalue-minimisations  :  1400
 total energy-change (2. order) :-0.3453078E+03  (-0.1221086E+00)
 number of electron     256.0000065 magnetization 
 augmentation part      -14.6460764 magnetization 

 Broyden mixing:
  rms(total) = 0.58530E-01    rms(broyden)= 0.58525E-01
  rms(prec ) = 0.61161E-01
  weight for this iteration     100.00

 Free energy of the ion-electron system (eV)
  ---------------------------------------------------
  alpha Z        PSCENC =       107.09632469
  Ewald energy   TEWEN  =     -7297.42386798
  -Hartree energ DENC   =      -482.65130620
  -exchange      EXHF   =         0.00000000
  -V(xc)+E(xc)   XCENC  =      -575.42252137
  PAW double counting   =     31958.31042887   -30839.54575703
  entropy T*S    EENTRO =        -0.00000000
  eigenvalues    EBANDS =       188.37691084
  atomic energy  EATOM  =      6595.95197522
  Solvation  Ediel_sol  =         0.00000000
  ---------------------------------------------------
  free energy    TOTEN  =      -345.30781296 eV

  energy without entropy =     -345.30781296  energy(sigma->0) =     -345.30781296


--------------------------------------------------------------------------------------------------------




--------------------------------------- Iteration      1(   2)  ---------------------------------------


    POTLOK:  cpu time      0.3141: real time      0.3161
    SETDIJ:  cpu time      0.0698: real time      0.0700
    EDDIAG:  cpu time      7.0505: real time      7.0664
  RMM-DIIS:  cpu time     22.5849: real time     22.6361
    ORTHCH:  cpu time      0.1741: real time      0.1746
       DOS:  cpu time      0.1042: real time      0.4100
    CHARGE:  cpu time      1.5016: real time      1.5050
    MIXING:  cpu time      0.0841: real time      0.0843
    --------------------------------------------
      LOOP:  cpu time     31.8833: real time     32.2624

 eigenvalue-minimisations  :  1291
 total energy-change (2. order) :-0.6448836E-02  (-0.6896568E-02)
 number of electron     256.0000065 magnetization 
 augmentation part      -14.6465717 magnetization 

 Broyden mixing:
  rms(total) = 0.21353E-01    rms(broyden)= 0.21352E-01
  rms(prec ) = 0.25241E-01
  weight for this iteration     100.00

 eigenvalues of (default mixing * dielectric matrix)
  average eigenvalue GAMMA=   1.3370
  1.3370

 Free energy of the ion-electron system (eV)
  ---------------------------------------------------
  alpha Z        PSCENC =       107.09632469
  Ewald energy   TEWEN  =     -7297.42386798
  -Hartree energ DENC   =      -482.60022451
  -exchange      EXHF   =         0.00000000
  -V(xc)+E(xc)   XCENC  =      -575.42253400
  PAW double counting   =     31979.35603839   -30860.59260142
  entropy T*S    EENTRO =        -0.00000000
  eigenvalues    EBANDS =       188.32062782
  atomic energy  EATOM  =      6595.95197522
  Solvation  Ediel_sol  =         0.00000000
  ---------------------------------------------------
  free energy    TOTEN  =      -345.31426179 eV

  energy without entropy =     -345.31426179  energy(sigma->0) =     -345.31426179


--------------------------------------------------------------------------------------------------------




--------------------------------------- Iteration      1(   3)  ---------------------------------------


    POTLOK:  cpu time      0.1088: real time      0.1091
    SETDIJ:  cpu time      0.0019: real time      0.0019
    EDDIAG:  cpu time      7.5738: real time      7.5910
  RMM-DIIS:  cpu time     27.4038: real time     27.4656
    ORTHCH:  cpu time      0.3992: real time      0.4001
       DOS:  cpu time      0.1267: real time      0.1270
    CHARGE:  cpu time      1.8915: real time      1.8958
    MIXING:  cpu time      0.2425: real time      0.2432
    --------------------------------------------
      LOOP:  cpu time     37.7482: real time     37.8336

 eigenvalue-minimisations  :  1503
 total energy-change (2. order) :-0.6034101E-03  (-0.1035708E-02)
 number of electron     256.0000065 magnetization 
 augmentation part      -14.6471700 magnetization 

 Broyden mixing:
  rms(total) = 0.95137E-02    rms(broyden)= 0.95131E-02
  rms(prec ) = 0.11529E-01
  weight for this iteration     100.00

 eigenvalues of (default mixing * dielectric matrix)
  average eigenvalue GAMMA=   1.6518
  1.6518  1.6518

 Free energy of the ion-electron system (eV)
  ---------------------------------------------------
  alpha Z        PSCENC =       107.09632469
  Ewald energy   TEWEN  =     -7297.42386798
  -Hartree energ DENC   =      -482.55875681
  -exchange      EXHF   =         0.00000000
  -V(xc)+E(xc)   XCENC  =      -575.42309946
  PAW double counting   =     31988.03888900   -30869.27714579
  entropy T*S    EENTRO =        -0.00000000
  eigenvalues    EBANDS =       188.28081591
  atomic energy  EATOM  =      6595.95197522
  Solvation  Ediel_sol  =         0.00000000
  ---------------------------------------------------
  free energy    TOTEN  =      -345.31486520 eV

  energy without entropy =     -345.31486520  energy(sigma->0) =     -345.31486520


--------------------------------------------------------------------------------------------------------




--------------------------------------- Iteration      1(   4)  ---------------------------------------


    POTLOK:  cpu time      0.0793: real time      0.0811
    SETDIJ:  cpu time      0.0019: real time      0.0019
    EDDIAG:  cpu time      4.0183: real time      4.0275
  RMM-DIIS:  cpu time     23.9982: real time     24.0522
    ORTHCH:  cpu time      0.2395: real time      0.2401
       DOS:  cpu time      0.0383: real time      0.0384
    CHARGE:  cpu time      1.1444: real time      1.1469
    MIXING:  cpu time      0.3161: real time      0.3169
    --------------------------------------------
      LOOP:  cpu time     29.8362: real time     29.9050

 eigenvalue-minimisations  :  1567
 total energy-change (2. order) :-0.8064583E-04  (-0.1930244E-03)
 number of electron     256.0000065 magnetization 
 augmentation part      -14.6473530 magnetization 

 Broyden mixing:
  rms(total) = 0.47551E-02    rms(broyden)= 0.47549E-02
  rms(prec ) = 0.52776E-02
  weight for this iteration     100.00

 eigenvalues of (default mixing * dielectric matrix)
  average eigenvalue GAMMA=   1.7875
  1.0286  2.3679  1.9658

 Free energy of the ion-electron system (eV)
  ---------------------------------------------------
  alpha Z        PSCENC =       107.09632469
  Ewald energy   TEWEN  =     -7297.42386798
  -Hartree energ DENC   =      -482.54222921
  -exchange      EXHF   =         0.00000000
  -V(xc)+E(xc)   XCENC  =      -575.42303392
  PAW double counting   =     31984.56369275   -30865.80409098
  entropy T*S    EENTRO =        -0.00000000
  eigenvalues    EBANDS =       188.26628358
  atomic energy  EATOM  =      6595.95197522
  Solvation  Ediel_sol  =         0.00000000
  ---------------------------------------------------
  free energy    TOTEN  =      -345.31494585 eV

  energy without entropy =     -345.31494585  energy(sigma->0) =     -345.31494585


--------------------------------------------------------------------------------------------------------




--------------------------------------- Iteration      1(   5)  ---------------------------------------


    POTLOK:  cpu time      0.0774: real time      0.0776
    SETDIJ:  cpu time      0.0019: real time      0.0019
    EDDIAG:  cpu time      7.0479: real time      7.0640
  RMM-DIIS:  cpu time     17.6721: real time     17.7126
    ORTHCH:  cpu time      0.3600: real time      0.3609
       DOS:  cpu time      0.1337: real time      0.1340
    --------------------------------------------
      LOOP:  cpu time     25.2929: real time     25.3510

 eigenvalue-minimisations  :  1155
 total energy-change (2. order) :-0.2596317E-04  (-0.3473044E-04)
 number of electron     256.0000065 magnetization 
 augmentation part      -14.6473530 magnetization 

 Free energy of the ion-electron system (eV)
  ---------------------------------------------------
  alpha Z        PSCENC =       107.09632469
  Ewald energy   TEWEN  =     -7297.42386798
  -Hartree energ DENC   =      -482.53705092
  -exchange      EXHF   =         0.00000000
  -V(xc)+E(xc)   XCENC  =      -575.42301970
  PAW double counting   =     31978.39904466   -30859.64078814
  entropy T*S    EENTRO =        -0.00000000
  eigenvalues    EBANDS =       188.26241036
  atomic energy  EATOM  =      6595.95197522
  Solvation  Ediel_sol  =         0.00000000
  ---------------------------------------------------
  free energy    TOTEN  =      -345.31497181 eV

  energy without entropy =     -345.31497181  energy(sigma->0) =     -345.31497181


--------------------------------------------------------------------------------------------------------




 average (electrostatic) potential at core
  the test charge radii are     0.9892
  (the norm of the test charge is              1.0000)
       1 -83.2578       2 -83.3161       3 -83.2986       4 -83.3185       5 -83.3258
       6 -83.3121       7 -83.3151       8 -83.3331       9 -83.2996      10 -83.3494
      11 -83.3423      12 -83.3371      13 -83.3105      14 -83.3154      15 -83.3323
      16 -83.3241      17 -83.3326      18 -83.2789      19 -83.3296      20 -83.3411
      21 -83.3131      22 -83.3112      23 -83.3564      24 -83.2735      25 -83.3248
      26 -83.3333      27 -83.3012      28 -83.2621      29 -83.2705      30 -83.3109
      31 -83.2838      32 -83.3508      33 -83.3214      34 -83.2857      35 -83.3198
      36 -83.3348      37 -83.3194      38 -83.3068      39 -83.3049      40 -83.3123
      41 -83.2911      42 -83.3345      43 -83.3042      44 -83.2687      45 -83.2907
      46 -83.3088      47 -83.2863      48 -83.3442      49 -83.3348      50 -83.3399
      51 -83.2752      52 -83.3109      53 -83.2767      54 -83.3111      55 -83.3185
      56 -83.3245      57 -83.2801      58 -83.2756      59 -83.3306      60 -83.3280
      61 -83.3416      62 -83.3160      63 -83.3191      64 -83.2498
 
 
 
 E-fermi :   6.0141     XC(G=0):  -9.3935     alpha+bet :-11.9226

 Fermi energy:         6.0141016983

 k-point     1 :       0.2500    0.2500    0.2500
  band No.  band energies     occupation 
      1      -5.9701      2.00000
      2      -5.4763      2.00000
      3      -5.4379      2.00000
      4      -5.3727      2.00000
      5      -4.9614      2.00000
      6      -4.9274      2.00000
      7      -4.8429      2.00000
      8      -4.4707      2.00000
      9      -4.4211      2.00000
     10      -4.3925      2.00000
     11      -4.3217      2.00000
     12      -4.0310      2.00000
     13      -3.9986      2.00000
     14      -3.9744      2.00000
     15      -3.9419      2.00000
     16      -3.8956      2.00000
     17      -3.8655      2.00000
     18      -3.7587      2.00000
     19      -3.7262      2.00000
     20      -3.6707      2.00000
     21      -3.2764      2.00000
     22      -3.2405      2.00000
     23      -3.1710      2.00000
     24      -2.9287      2.00000
     25      -2.9016      2.00000
     26      -2.8291      2.00000
     27      -2.7496      2.00000
     28      -2.7357      2.00000
     29      -2.6840      2.00000
     30      -2.6587      2.00000
     31      -2.6367      2.00000
     32      -2.5880      2.00000
     33      -1.2022      2.00000
     34      -1.1905      2.00000
     35      -1.1707      2.00000
     36      -1.1338      2.00000
     37      -1.1290      2.00000
     38      -1.0999      2.00000
     39      -1.0496      2.00000
     40      -1.0265      2.00000
     41      -1.0052      2.00000
     42      -0.9565      2.00000
     43      -0.9196      2.00000
     44      -0.8970      2.00000
     45      -0.8781      2.00000
     46      -0.8527      2.00000
     47      -0.8160      2.00000
     48      -0.1654      2.00000
     49      -0.0997      2.00000
     50      -0.0762      2.00000
     51      -0.0533      2.00000
     52      -0.0293      2.00000
     53      -0.0053      2.00000
     54       0.0211      2.00000
     55       0.8223      2.00000
     56       0.8374      2.00000
     57       0.8630      2.00000
     58       1.1388      2.00000
     59       1.1607      2.00000
     60       1.1787      2.00000
     61       1.6946      2.00000
     62       1.7075      2.00000
     63       1.7267      2.00000
     64       1.7344      2.00000
     65       1.7582      2.00000
     66       1.7711      2.00000
     67       1.8103      2.00000
     68       1.8250      2.00000
     69       1.8347      2.00000
     70       2.3297      2.00000
     71       2.3349      2.00000
     72       2.3606      2.00000
     73       2.4137      2.00000
     74       2.4393      2.00000
     75       2.4586      2.00000
     76       2.4743      2.00000
     77       2.5024      2.00000
     78       2.5258      2.00000
     79       2.5704      2.00000
     80       2.5884      2.00000
     81       2.6129      2.00000
     82       2.7770      2.00000
     83       2.8187      2.00000
     84       2.8303      2.00000
     85       2.8584      2.00000
     86       2.8864      2.00000
     87       2.9048      2.00000
     88       3.0797      2.00000
     89       3.0972      2.00000
     90       3.1105      2.00000
     91       3.1332      2.00000
     92       3.1542      2.00000
     93       3.1749      2.00000
     94       3.4271      2.00000
     95       3.4421      2.00000
     96       3.4502      2.00000
     97       3.4939      2.00000
     98       3.5401      2.00000
     99       3.5560      2.00000
    100       3.5616      2.00000
    101       3.6138      2.00000
    102       3.6298      2.00000
    103       3.7873      2.00000
    104       3.8275      2.00000
    105       3.8418      2.00000
    106       3.8834      2.00000
    107       3.9014      2.00000
    108       3.9185      2.00000
    109       3.9223      2.00000
    110       3.9469      2.00000
    111       3.9681      2.00000
    112       4.1746      2.00000
    113       4.2497      2.00000
    114       4.2618      2.00000
    115       4.2927      2.00000
    116       4.4588      2.00000
    117       4.4896      2.00000
    118       4.5113      2.00000
    119       4.5426      2.00000
    120       4.5534      2.00000
    121       4.5663      2.00000
    122       4.6968      2.00000
    123       4.7369      2.00000
    124       5.0115      2.00000
    125       5.0520      2.00000
    126       5.0778      2.00000
    127       5.5025      2.00000
    128       5.5355      2.00000
    129       6.6333      0.00000
    130       6.6921      0.00000
    131       6.7298      0.00000
    132       7.1137      0.00000
    133       7.1323      0.00000
    134       7.1583      0.00000
    135       7.3972      0.00000
    136       7.5954      0.00000
    137       7.6097      0.00000
    138       7.6283      0.00000
    139       7.6834      0.00000
    140       7.7582      0.00000
    141       7.7721      0.00000
    142       7.8991      0.00000
    143       7.9188      0.00000
    144       7.9381      0.00000
    145       7.9599      0.00000
    146       7.9869      0.00000
    147       8.0036      0.00000
    148       8.1077      0.00000
    149       8.1338      0.00000
    150       8.1465      0.00000
    151       8.1765      0.00000
    152       8.2089      0.00000
    153       8.2388      0.00000
    154       8.2709      0.00000
    155       8.4694      0.00000
    156       8.4831      0.00000
    157       8.4893      0.00000
    158       8.5242      0.00000
    159       8.6016      0.00000
    160       8.6355      0.00000
    161       8.6722      0.00000

 k-point     2 :       0.2500   -0.2500    0.2500
  band No.  band energies     occupation 
      1      -5.9704      2.00000
      2      -5.4764      2.00000
      3      -5.4379      2.00000
      4      -5.3714      2.00000
      5      -4.9601      2.00000
      6      -4.9267      2.00000
      7      -4.8446      2.00000
      8      -4.4763      2.00000
      9      -4.4231      2.00000
     10      -4.3920      2.00000
     11      -4.3223      2.00000
     12      -4.0587      2.00000
     13      -3.9902      2.00000
     14      -3.9575      2.00000
     15      -3.9223      2.00000
     16      -3.8926      2.00000
     17      -3.8746      2.00000
     18      -3.7440      2.00000
     19      -3.7209      2.00000
     20      -3.6862      2.00000
     21      -3.2805      2.00000
     22      -3.2485      2.00000
     23      -3.1720      2.00000
     24      -2.9165      2.00000
     25      -2.8945      2.00000
     26      -2.8538      2.00000
     27      -2.7702      2.00000
     28      -2.6987      2.00000
     29      -2.6826      2.00000
     30      -2.6673      2.00000
     31      -2.6428      2.00000
     32      -2.5814      2.00000
     33      -1.2002      2.00000
     34      -1.1874      2.00000
     35      -1.1718      2.00000
     36      -1.1471      2.00000
     37      -1.1267      2.00000
     38      -1.1025      2.00000
     39      -1.0695      2.00000
     40      -1.0495      2.00000
     41      -0.9924      2.00000
     42      -0.9479      2.00000
     43      -0.9241      2.00000
     44      -0.8946      2.00000
     45      -0.8726      2.00000
     46      -0.8342      2.00000
     47      -0.7952      2.00000
     48      -0.1578      2.00000
     49      -0.1117      2.00000
     50      -0.0630      2.00000
     51      -0.0511      2.00000
     52      -0.0350      2.00000
     53      -0.0196      2.00000
     54       0.0152      2.00000
     55       0.8137      2.00000
     56       0.8500      2.00000
     57       0.8746      2.00000
     58       1.1397      2.00000
     59       1.1597      2.00000
     60       1.1779      2.00000
     61       1.6928      2.00000
     62       1.7033      2.00000
     63       1.7245      2.00000
     64       1.7385      2.00000
     65       1.7538      2.00000
     66       1.7769      2.00000
     67       1.8014      2.00000
     68       1.8191      2.00000
     69       1.8320      2.00000
     70       2.3162      2.00000
     71       2.3449      2.00000
     72       2.3598      2.00000
     73       2.4116      2.00000
     74       2.4501      2.00000
     75       2.4600      2.00000
     76       2.4718      2.00000
     77       2.4926      2.00000
     78       2.5098      2.00000
     79       2.5755      2.00000
     80       2.5851      2.00000
     81       2.5995      2.00000
     82       2.7843      2.00000
     83       2.8186      2.00000
     84       2.8450      2.00000
     85       2.8524      2.00000
     86       2.8836      2.00000
     87       2.9036      2.00000
     88       3.0843      2.00000
     89       3.1037      2.00000
     90       3.1085      2.00000
     91       3.1284      2.00000
     92       3.1464      2.00000
     93       3.1732      2.00000
     94       3.4301      2.00000
     95       3.4580      2.00000
     96       3.4932      2.00000
     97       3.5113      2.00000
     98       3.5254      2.00000
     99       3.5557      2.00000
    100       3.5831      2.00000
    101       3.6041      2.00000
    102       3.6252      2.00000
    103       3.8058      2.00000
    104       3.8405      2.00000
    105       3.8488      2.00000
    106       3.8745      2.00000
    107       3.8828      2.00000
    108       3.9091      2.00000
    109       3.9303      2.00000
    110       3.9365      2.00000
    111       3.9595      2.00000
    112       4.1938      2.00000
    113       4.2360      2.00000
    114       4.2538      2.00000
    115       4.2701      2.00000
    116       4.4565      2.00000
    117       4.4922      2.00000
    118       4.5022      2.00000
    119       4.5268      2.00000
    120       4.5723      2.00000
    121       4.5842      2.00000
    122       4.7080      2.00000
    123       4.7444      2.00000
    124       5.0060      2.00000
    125       5.0420      2.00000
    126       5.0641      2.00000
    127       5.4950      2.00000
    128       5.5336      2.00000
    129       6.6505      0.00000
    130       6.6855      0.00000
    131       6.7004      0.00000
    132       7.1197      0.00000
    133       7.1296      0.00000
    134       7.1667      0.00000
    135       7.3918      0.00000
    136       7.6019      0.00000
    137       7.6183      0.00000
    138       7.6288      0.00000
    139       7.7151      0.00000
    140       7.7444      0.00000
    141       7.7696      0.00000
    142       7.8989      0.00000
    143       7.9143      0.00000
    144       7.9404      0.00000
    145       7.9498      0.00000
    146       7.9768      0.00000
    147       8.0157      0.00000
    148       8.0717      0.00000
    149       8.1262      0.00000
    150       8.1604      0.00000
    151       8.1809      0.00000
    152       8.2086      0.00000
    153       8.2234      0.00000
    154       8.2623      0.00000
    155       8.4734      0.00000
    156       8.4818      0.00000
    157       8.4890      0.00000
    158       8.5696      0.00000
    159       8.6090      0.00000
    160       8.6491      0.00000
    161       8.6763      0.00000

 k-point     3 :      -0.2500    0.2500    0.2500
  band No.  band energies     occupation 
      1      -5.9720      2.00000
      2      -5.4595      2.00000
      3      -5.4334      2.00000
      4      -5.3895      2.00000
      5      -4.9485      2.00000
      6      -4.9132      2.00000
      7      -4.8831      2.00000
      8      -4.4890      2.00000
      9      -4.4136      2.00000
     10      -4.3836      2.00000
     11      -4.3248      2.00000
     12      -4.0253      2.00000
     13      -3.9847      2.00000
     14      -3.9479      2.00000
     15      -3.9317      2.00000
     16      -3.9081      2.00000
     17      -3.8872      2.00000
     18      -3.7460      2.00000
     19      -3.7140      2.00000
     20      -3.6748      2.00000
     21      -3.2844      2.00000
     22      -3.2481      2.00000
     23      -3.2111      2.00000
     24      -2.9355      2.00000
     25      -2.8801      2.00000
     26      -2.8355      2.00000
     27      -2.7598      2.00000
     28      -2.6949      2.00000
     29      -2.6791      2.00000
     30      -2.6510      2.00000
     31      -2.6428      2.00000
     32      -2.6029      2.00000
     33      -1.1982      2.00000
     34      -1.1882      2.00000
     35      -1.1732      2.00000
     36      -1.1442      2.00000
     37      -1.1334      2.00000
     38      -1.1091      2.00000
     39      -1.0836      2.00000
     40      -1.0386      2.00000
     41      -1.0125      2.00000
     42      -0.9617      2.00000
     43      -0.9232      2.00000
     44      -0.9034      2.00000
     45      -0.8539      2.00000
     46      -0.8184      2.00000
     47      -0.7626      2.00000
     48      -0.1418      2.00000
     49      -0.1174      2.00000
     50      -0.0877      2.00000
     51      -0.0512      2.00000
     52      -0.0350      2.00000
     53      -0.0194      2.00000
     54      -0.0044      2.00000
     55       0.8272      2.00000
     56       0.8556      2.00000
     57       0.8857      2.00000
     58       1.1499      2.00000
     59       1.1712      2.00000
     60       1.1845      2.00000
     61       1.6821      2.00000
     62       1.7090      2.00000
     63       1.7209      2.00000
     64       1.7420      2.00000
     65       1.7677      2.00000
     66       1.7733      2.00000
     67       1.7969      2.00000
     68       1.8099      2.00000
     69       1.8278      2.00000
     70       2.3267      2.00000
     71       2.3448      2.00000
     72       2.3607      2.00000
     73       2.4025      2.00000
     74       2.4199      2.00000
     75       2.4565      2.00000
     76       2.4690      2.00000
     77       2.4956      2.00000
     78       2.5110      2.00000
     79       2.5646      2.00000
     80       2.5835      2.00000
     81       2.5970      2.00000
     82       2.7945      2.00000
     83       2.8074      2.00000
     84       2.8322      2.00000
     85       2.8541      2.00000
     86       2.8700      2.00000
     87       2.9019      2.00000
     88       3.0859      2.00000
     89       3.0883      2.00000
     90       3.1091      2.00000
     91       3.1183      2.00000
     92       3.1339      2.00000
     93       3.1471      2.00000
     94       3.4341      2.00000
     95       3.4684      2.00000
     96       3.4851      2.00000
     97       3.5131      2.00000
     98       3.5385      2.00000
     99       3.5720      2.00000
    100       3.5890      2.00000
    101       3.6046      2.00000
    102       3.6144      2.00000
    103       3.8031      2.00000
    104       3.8528      2.00000
    105       3.8752      2.00000
    106       3.8932      2.00000
    107       3.9086      2.00000
    108       3.9120      2.00000
    109       3.9356      2.00000
    110       3.9503      2.00000
    111       3.9569      2.00000
    112       4.1970      2.00000
    113       4.2383      2.00000
    114       4.2457      2.00000
    115       4.2628      2.00000
    116       4.4726      2.00000
    117       4.4816      2.00000
    118       4.4982      2.00000
    119       4.5543      2.00000
    120       4.5838      2.00000
    121       4.6198      2.00000
    122       4.7112      2.00000
    123       4.7243      2.00000
    124       5.0071      2.00000
    125       5.0150      2.00000
    126       5.0481      2.00000
    127       5.4953      2.00000
    128       5.5109      2.00000
    129       6.6255      0.00000
    130       6.6725      0.00000
    131       6.7147      0.00000
    132       7.1207      0.00000
    133       7.1350      0.00000
    134       7.1481      0.00000
    135       7.3991      0.00000
    136       7.6059      0.00000
    137       7.6151      0.00000
    138       7.6321      0.00000
    139       7.7034      0.00000
    140       7.7512      0.00000
    141       7.7695      0.00000
    142       7.9013      0.00000
    143       7.9233      0.00000
    144       7.9337      0.00000
    145       7.9534      0.00000
    146       7.9743      0.00000
    147       8.0049      0.00000
    148       8.1049      0.00000
    149       8.1349      0.00000
    150       8.1632      0.00000
    151       8.1806      0.00000
    152       8.2007      0.00000
    153       8.2141      0.00000
    154       8.2610      0.00000
    155       8.4747      0.00000
    156       8.4836      0.00000
    157       8.4920      0.00000
    158       8.5600      0.00000
    159       8.6101      0.00000
    160       8.6289      0.00000
    161       8.6525      0.00000

 k-point     4 :      -0.2500   -0.2500    0.2500
  band No.  band energies     occupation 
      1      -5.9712      2.00000
      2      -5.4524      2.00000
      3      -5.4417      2.00000
      4      -5.3936      2.00000
      5      -4.9422      2.00000
      6      -4.9172      2.00000
      7      -4.8814      2.00000
      8      -4.4753      2.00000
      9      -4.3965      2.00000
     10      -4.3932      2.00000
     11      -4.3338      2.00000
     12      -4.0097      2.00000
     13      -3.9938      2.00000
     14      -3.9511      2.00000
     15      -3.9388      2.00000
     16      -3.9315      2.00000
     17      -3.8689      2.00000
     18      -3.7627      2.00000
     19      -3.7172      2.00000
     20      -3.6878      2.00000
     21      -3.2539      2.00000
     22      -3.2381      2.00000
     23      -3.2041      2.00000
     24      -2.9294      2.00000
     25      -2.8818      2.00000
     26      -2.8559      2.00000
     27      -2.7307      2.00000
     28      -2.7169      2.00000
     29      -2.6878      2.00000
     30      -2.6608      2.00000
     31      -2.6287      2.00000
     32      -2.6092      2.00000
     33      -1.2102      2.00000
     34      -1.1828      2.00000
     35      -1.1607      2.00000
     36      -1.1471      2.00000
     37      -1.1257      2.00000
     38      -1.1004      2.00000
     39      -1.0689      2.00000
     40      -1.0280      2.00000
     41      -1.0090      2.00000
     42      -0.9618      2.00000
     43      -0.9140      2.00000
     44      -0.8981      2.00000
     45      -0.8628      2.00000
     46      -0.8462      2.00000
     47      -0.8045      2.00000
     48      -0.1547      2.00000
     49      -0.0930      2.00000
     50      -0.0716      2.00000
     51      -0.0551      2.00000
     52      -0.0277      2.00000
     53      -0.0178      2.00000
     54      -0.0006      2.00000
     55       0.8286      2.00000
     56       0.8423      2.00000
     57       0.8608      2.00000
     58       1.1474      2.00000
     59       1.1624      2.00000
     60       1.1817      2.00000
     61       1.6834      2.00000
     62       1.7100      2.00000
     63       1.7293      2.00000
     64       1.7393      2.00000
     65       1.7616      2.00000
     66       1.7685      2.00000
     67       1.7991      2.00000
     68       1.8182      2.00000
     69       1.8247      2.00000
     70       2.3271      2.00000
     71       2.3517      2.00000
     72       2.3638      2.00000
     73       2.4198      2.00000
     74       2.4282      2.00000
     75       2.4628      2.00000
     76       2.4786      2.00000
     77       2.4905      2.00000
     78       2.5172      2.00000
     79       2.5667      2.00000
     80       2.5875      2.00000
     81       2.5994      2.00000
     82       2.7942      2.00000
     83       2.8300      2.00000
     84       2.8403      2.00000
     85       2.8491      2.00000
     86       2.8712      2.00000
     87       2.8965      2.00000
     88       3.0695      2.00000
     89       3.0995      2.00000
     90       3.1113      2.00000
     91       3.1245      2.00000
     92       3.1508      2.00000
     93       3.1741      2.00000
     94       3.4349      2.00000
     95       3.4667      2.00000
     96       3.4831      2.00000
     97       3.5082      2.00000
     98       3.5276      2.00000
     99       3.5454      2.00000
    100       3.5691      2.00000
    101       3.6023      2.00000
    102       3.6239      2.00000
    103       3.8142      2.00000
    104       3.8411      2.00000
    105       3.8595      2.00000
    106       3.8827      2.00000
    107       3.8953      2.00000
    108       3.9052      2.00000
    109       3.9246      2.00000
    110       3.9395      2.00000
    111       3.9602      2.00000
    112       4.1855      2.00000
    113       4.2302      2.00000
    114       4.2491      2.00000
    115       4.2725      2.00000
    116       4.4622      2.00000
    117       4.4933      2.00000
    118       4.5066      2.00000
    119       4.5482      2.00000
    120       4.5626      2.00000
    121       4.5761      2.00000
    122       4.7070      2.00000
    123       4.7502      2.00000
    124       5.0167      2.00000
    125       5.0386      2.00000
    126       5.0555      2.00000
    127       5.4923      2.00000
    128       5.5388      2.00000
    129       6.6404      0.00000
    130       6.6789      0.00000
    131       6.7090      0.00000
    132       7.1238      0.00000
    133       7.1367      0.00000
    134       7.1417      0.00000
    135       7.4045      0.00000
    136       7.5913      0.00000
    137       7.6131      0.00000
    138       7.6295      0.00000
    139       7.7092      0.00000
    140       7.7397      0.00000
    141       7.7717      0.00000
    142       7.9021      0.00000
    143       7.9294      0.00000
    144       7.9439      0.00000
    145       7.9595      0.00000
    146       7.9815      0.00000
    147       8.0021      0.00000
    148       8.1192      0.00000
    149       8.1375      0.00000
    150       8.1560      0.00000
    151       8.1649      0.00000
    152       8.2044      0.00000
    153       8.2160      0.00000
    154       8.2707      0.00000
    155       8.4706      0.00000
    156       8.4848      0.00000
    157       8.4959      0.00000
    158       8.5682      0.00000
    159       8.5981      0.00000
    160       8.6400      0.00000
    161       8.6563      0.00000


--------------------------------------------------------------------------------------------------------


 soft charge-density along one line, spin component           1
         0         1         2         3         4         5         6         7         8         9
 total charge-density along one line
 
 pseudopotential strength for first ion, spin component:           1
 18.414  25.691   0.001  -0.001  -0.001   0.002  -0.002  -0.001
 25.691  35.848   0.001  -0.001  -0.001   0.003  -0.003  -0.002
  0.001   0.001   4.178  -0.000   0.000   7.786  -0.000   0.000
 -0.001  -0.001  -0.000   4.178  -0.000  -0.000   7.786  -0.000
 -0.001  -0.001   0.000  -0.000   4.178   0.000  -0.000   7.786
  0.002   0.003   7.786  -0.000   0.000  14.519  -0.001   0.000
 -0.002  -0.003  -0.000   7.786  -0.000  -0.001  14.519  -0.000
 -0.001  -0.002   0.000  -0.000   7.786   0.000  -0.000  14.519
 total augmentation occupancy for first ion, spin component:           1
  5.965  -2.297  -0.005   0.118  -0.194   0.003  -0.043   0.069
 -2.297   0.996   0.011  -0.071   0.090  -0.003   0.022  -0.031
 -0.005   0.011   3.308  -0.179  -0.008  -0.802   0.054   0.004
  0.118  -0.071  -0.179   3.272   0.063   0.054  -0.788  -0.020
 -0.194   0.090  -0.008   0.063   3.320   0.004  -0.020  -0.806
  0.003  -0.003  -0.802   0.054   0.004   0.202  -0.016  -0.001
 -0.043   0.022   0.054  -0.788  -0.020  -0.016   0.198   0.006
  0.069  -0.031   0.004  -0.020  -0.806  -0.001   0.006   0.204


------------------------ aborting loop because EDIFF is reached ----------------------------------------


    CHARGE:  cpu time      1.3858: real time      1.3889
    FORLOC:  cpu time      0.0257: real time      0.0258
    FORNL :  cpu time      8.1233: real time      8.1420
    STRESS:  cpu time     29.6922: real time     29.7597
    FORCOR:  cpu time      0.4715: real time      0.4727
    FORHAR:  cpu time      0.2241: real time      0.2246
    MIXING:  cpu time      0.2197: real time      0.2202
    OFIELD:  cpu time      0.0000: real time      0.0000

  FORCE on cell =-STRESS in cart. coord.  units (eV):
  Direction    XX          YY          ZZ          XY          YZ          ZX
  --------------------------------------------------------------------------------------
  Alpha Z   107.09632   107.09632   107.09632
  Ewald   -2433.58821 -2433.97036 -2429.91048    12.02834    -4.26356    14.23057
  Hartree   160.57607   159.65260   162.30652     1.57393    -0.89086     2.69178
  E(xc)    -811.28991  -811.28024  -811.31934    -0.11610     0.02355    -0.11610
  Local    -941.80677  -940.35730  -947.26869   -13.10193     4.99128   -16.32482
  n-local  2492.33197  2492.25946  2492.87066     2.60727    -0.59477     2.65796
  augment  -372.01348  -372.00394  -372.04517    -0.15576     0.04313    -0.16432
  Kinetic  1809.28912  1809.31127  1809.17041    -0.98059     0.12999    -0.79401
  Fock        0.00000     0.00000     0.00000     0.00000     0.00000     0.00000
  -------------------------------------------------------------------------------------
  Total      10.59510    10.70780    10.90022     1.85516    -0.56125     2.18106
  in kB      13.18486    13.32511    13.56457     2.30862    -0.69844     2.71418
  external pressure =       13.36 kB  Pullay stress =        0.00 kB


 VOLUME and BASIS-vectors are now :
 -----------------------------------------------------------------------------
  energy-cutoff  :      250.00
  volume of cell :     1287.48
      direct lattice vectors                 reciprocal lattice vectors
    10.877792750  0.000000000  0.000000000     0.091930415  0.000077738  0.000105122
    -0.009200160 10.879774140  0.000000000     0.000000000  0.091913673 -0.000062247
    -0.012445980  0.007367440 10.878755740     0.000000000  0.000000000  0.091922277

  length of vectors
    10.877792750 10.879778030 10.878765354     0.091930508  0.091913694  0.091922277


 FORCES acting on ions
    electron-ion (+dipol)            ewald-force                    non-local-force                 convergence-correction
 -----------------------------------------------------------------------------------------------
   -.464E+01 0.193E+01 0.483E+01   0.409E+01 -.208E+01 -.434E+01   0.150E+01 -.149E+00 -.563E+00   0.136E-02 0.393E-03 -.451E-03
   -.397E+00 0.563E+01 -.114E+01   0.120E+00 -.537E+01 0.836E+00   -.177E+00 -.512E+00 0.290E+00   0.467E-03 0.410E-03 0.174E-04
   -.286E+01 -.107E+00 0.548E+01   0.250E+01 -.183E+00 -.496E+01   0.525E+00 0.398E+00 -.916E+00   0.103E-02 -.163E-03 0.769E-03
   0.867E+00 0.299E+01 0.292E+01   -.975E+00 -.308E+01 -.266E+01   0.353E+00 -.463E+00 -.633E+00   0.325E-03 0.327E-03 -.170E-03
   -.246E+00 0.361E+01 0.336E+01   0.113E+00 -.371E+01 -.331E+01   -.195E+00 0.581E-01 -.112E+00   0.824E-03 0.140E-02 -.580E-03
   -.344E+01 0.346E+01 0.311E+01   0.336E+01 -.333E+01 -.282E+01   0.653E+00 -.215E+00 -.492E+00   0.673E-04 0.209E-03 -.291E-03
   -.191E+01 0.250E+01 0.170E+01   0.207E+01 -.275E+01 -.146E+01   0.310E+00 0.180E+00 -.228E+00   0.209E-03 0.335E-03 -.282E-03
   0.308E+01 0.545E+00 -.728E+00   -.306E+01 -.510E+00 0.876E+00   -.574E+00 0.378E+00 0.823E+00   0.338E-03 0.401E-03 0.101E-02
   0.363E+01 0.336E+01 -.438E+01   -.368E+01 -.314E+01 0.423E+01   -.363E-01 -.521E+00 0.583E+00   0.491E-03 0.656E-03 0.538E-03
   0.158E+01 0.193E+01 -.350E+01   -.151E+01 -.197E+01 0.309E+01   0.527E-01 -.377E+00 0.153E+00   -.654E-04 0.187E-03 -.509E-03
   0.431E+01 0.552E+01 -.416E+01   -.419E+01 -.501E+01 0.388E+01   -.485E+00 -.101E+01 0.835E+00   0.315E-03 0.397E-03 -.348E-03
   0.422E+01 0.336E+01 -.212E+01   -.397E+01 -.320E+01 0.178E+01   -.241E+00 -.167E+00 0.196E+00   -.371E-03 0.576E-03 -.470E-04
   0.593E+01 0.124E+01 -.140E+01   -.585E+01 -.158E+01 0.154E+01   -.361E+00 0.198E+00 -.447E+00   -.178E-04 -.215E-03 -.594E-03
   0.198E+00 -.113E+01 -.337E-01   -.211E-01 0.112E+01 0.239E+00   -.529E+00 -.130E-02 -.802E-01   -.806E-03 -.477E-04 0.176E-03
   -.153E+01 0.549E+01 -.366E+01   0.135E+01 -.530E+01 0.349E+01   0.388E+00 -.764E+00 0.101E+01   -.181E-03 0.524E-03 0.712E-03
   0.258E+01 -.634E+00 0.144E+01   -.258E+01 0.363E+00 -.101E+01   -.357E+00 0.391E+00 -.294E+00   0.104E-02 0.431E-03 -.556E-04
   0.105E+01 -.264E+01 -.164E+00   -.111E+01 0.243E+01 -.275E-01   0.125E+00 0.337E+00 0.314E+00   0.105E-02 -.448E-03 0.269E-03
   0.452E+01 -.583E+01 0.232E+01   -.405E+01 0.553E+01 -.205E+01   -.885E+00 0.862E+00 -.495E+00   0.895E-03 -.640E-03 -.602E-03
   0.584E+00 -.427E+01 -.166E+01   -.766E+00 0.390E+01 0.114E+01   0.141E+00 0.663E+00 0.354E+00   0.696E-03 0.109E-04 -.580E-03
   0.329E+01 -.110E+01 0.435E+00   -.307E+01 0.102E+01 -.270E+00   -.666E+00 -.120E+00 -.313E+00   0.867E-04 0.310E-03 0.252E-03
   0.667E+01 -.232E+01 0.163E+01   -.623E+01 0.251E+01 -.167E+01   -.107E+01 -.112E+00 -.213E+00   0.821E-03 -.166E-02 -.407E-03
   -.271E+01 -.438E+01 -.110E+01   0.258E+01 0.418E+01 0.725E+00   0.730E+00 0.705E+00 0.449E+00   0.254E-03 -.132E-03 0.675E-03
   0.118E+01 -.597E+01 0.403E+00   -.557E+00 0.569E+01 -.138E+00   -.881E+00 0.752E+00 -.867E-01   -.962E-03 -.107E-02 -.965E-03
   0.331E+01 0.780E+00 -.310E+01   -.300E+01 -.574E+00 0.262E+01   -.614E+00 -.279E+00 0.562E+00   0.884E-03 -.178E-03 -.206E-03
   0.954E+00 -.120E+01 0.319E-01   -.936E+00 0.140E+01 0.925E-01   -.954E-01 0.196E+00 -.117E+00   0.831E-03 -.231E-03 0.367E-03
   -.199E+00 0.104E+01 0.273E+00   -.889E-01 -.635E+00 0.608E-02   0.704E-01 -.554E+00 -.259E+00   -.819E-03 -.132E-03 0.125E-03
   0.399E+01 -.418E+00 -.287E+00   -.374E+01 0.883E+00 0.860E-01   -.428E+00 -.573E+00 -.140E-01   -.444E-03 -.111E-02 0.477E-03
   0.428E+01 -.247E+01 -.266E+00   -.402E+01 0.257E+01 0.243E+00   -.534E+00 0.125E-02 -.982E-01   -.100E-02 -.182E-02 -.230E-03
   0.351E+01 -.297E+01 0.188E+01   -.360E+01 0.285E+01 -.149E+01   0.518E-01 -.804E-01 -.557E+00   -.694E-03 -.685E-03 -.718E-03
   -.125E+01 -.194E+00 -.156E+01   0.131E+01 0.220E+00 0.122E+01   0.607E-01 -.102E+00 0.221E+00   -.614E-03 0.133E-03 0.332E-03
   -.297E+01 -.293E+01 0.156E+01   0.257E+01 0.287E+01 -.141E+01   0.805E+00 0.122E+00 -.234E+00   -.128E-02 0.529E-03 -.652E-04
   -.307E-01 -.347E+01 -.156E+01   -.521E+00 0.308E+01 0.140E+01   0.601E+00 0.906E+00 0.358E+00   0.701E-03 -.177E-03 0.325E-03
   0.167E+01 -.263E+01 -.432E+01   -.141E+01 0.202E+01 0.407E+01   -.127E+00 0.658E+00 0.557E+00   -.865E-03 0.938E-03 0.141E-03
   0.196E+01 -.195E+01 0.996E+00   -.196E+01 0.117E+01 -.867E+00   -.424E+00 0.116E+01 -.144E+00   0.445E-03 0.140E-02 0.415E-03
   0.226E+01 0.235E+01 -.753E+00   -.216E+01 -.234E+01 0.760E+00   -.535E+00 -.221E+00 0.110E+00   -.109E-02 0.100E-02 0.964E-03
   -.233E+01 0.775E+01 0.243E+00   0.233E+01 -.739E+01 -.335E+00   0.247E+00 -.960E+00 -.332E+00   -.769E-03 -.483E-03 -.456E-03
   0.628E+01 0.539E+01 -.245E+01   -.569E+01 -.498E+01 0.210E+01   -.132E+01 -.636E+00 0.271E+00   -.128E-02 0.529E-03 0.133E-02
   -.285E+00 0.115E+00 0.297E+01   0.241E+00 0.167E+00 -.277E+01   0.663E+00 -.331E+00 -.830E+00   0.399E-03 0.393E-04 -.650E-03
   0.376E+01 0.262E+01 -.435E+01   -.348E+01 -.276E+01 0.414E+01   -.651E+00 0.331E+00 0.393E+00   -.698E-04 0.344E-03 0.114E-03
   -.213E+01 0.290E+01 -.240E+01   0.208E+01 -.284E+01 0.223E+01   -.104E+00 -.245E+00 0.813E+00   -.288E-06 0.950E-03 0.655E-03
   -.653E+01 0.153E+01 0.319E+01   0.604E+01 -.121E+01 -.290E+01   0.960E+00 0.222E-01 -.337E+00   0.201E-03 0.977E-03 -.381E-03
   -.914E+00 0.498E+01 -.476E+00   0.911E+00 -.471E+01 0.708E+00   -.113E+00 -.526E+00 -.254E+00   0.720E-04 0.115E-02 -.228E-03
   -.302E+01 0.347E+01 0.752E+01   0.270E+01 -.343E+01 -.689E+01   0.723E+00 -.745E-01 -.153E+01   -.583E-03 -.449E-03 -.457E-04
   -.286E+01 0.212E+01 -.400E+00   0.300E+01 -.221E+01 0.272E+00   0.143E-01 0.851E-01 0.613E-01   -.848E-03 -.346E-03 0.272E-03
   -.647E+01 0.567E+01 0.369E+01   0.605E+01 -.549E+01 -.341E+01   0.776E+00 -.904E+00 -.404E+00   -.165E-02 0.627E-04 -.915E-03
   -.203E+01 0.181E+00 0.321E+00   0.171E+01 -.277E+00 -.304E+00   0.520E+00 -.337E+00 -.304E+00   0.623E-03 -.104E-03 -.112E-03
   -.498E+00 0.359E+01 0.546E+01   0.270E+00 -.372E+01 -.502E+01   0.713E+00 0.137E+00 -.941E+00   0.102E-02 0.179E-02 -.510E-03
   -.253E+01 -.624E+00 -.233E+01   0.227E+01 0.548E+00 0.214E+01   0.341E+00 0.475E+00 0.712E+00   -.363E-03 0.313E-03 0.541E-03
   -.350E+01 0.712E-01 0.190E+01   0.337E+01 0.185E-01 -.189E+01   0.606E+00 -.224E+00 -.210E+00   -.571E-04 -.119E-02 0.145E-02
   -.408E+01 -.278E+01 0.181E+01   0.374E+01 0.243E+01 -.167E+01   0.531E+00 -.190E+00 -.323E-01   -.710E-03 -.272E-03 0.142E-03
   -.154E+01 -.499E+01 -.736E+00   0.156E+01 0.472E+01 0.542E+00   -.210E-01 0.557E+00 0.308E+00   -.432E-03 0.570E-03 0.619E-03
   -.222E+01 -.652E+01 0.180E+01   0.237E+01 0.632E+01 -.189E+01   -.469E+00 0.753E+00 -.629E-01   0.413E-04 0.113E-02 0.254E-04
   -.253E+01 -.244E+01 0.535E+01   0.257E+01 0.271E+01 -.496E+01   -.142E+00 0.326E-01 -.537E+00   0.158E-03 -.898E-03 0.111E-03
   0.343E+00 0.565E+01 -.123E+01   -.821E-01 -.480E+01 0.858E+00   -.524E+00 -.110E+01 0.459E+00   0.602E-03 -.119E-02 0.691E-03
   -.157E+01 -.360E+01 -.213E+01   0.151E+01 0.359E+01 0.215E+01   0.408E+00 0.761E-01 -.349E-01   -.972E-03 -.290E-03 0.534E-03
   -.103E+00 -.555E+01 0.634E+00   0.412E+00 0.512E+01 -.575E+00   -.434E+00 0.509E+00 -.258E-01   -.617E-03 -.120E-03 -.208E-03
   -.426E+01 -.148E+00 -.214E+01   0.409E+01 0.435E+00 0.197E+01   0.739E+00 -.420E+00 0.156E+00   0.369E-03 -.145E-02 -.838E-03
   -.125E+01 -.334E+01 -.203E+01   0.136E+01 0.357E+01 0.204E+01   0.326E+00 -.983E-01 0.323E+00   0.966E-03 -.157E-03 -.608E-03
   0.162E+01 -.286E+01 -.301E+00   -.113E+01 0.280E+01 0.367E+00   -.831E+00 0.138E+00 0.410E-01   0.196E-03 0.518E-03 -.443E-03
   -.226E+01 0.755E+00 0.161E+01   0.237E+01 -.317E+00 -.121E+01   0.115E-01 -.116E+01 -.635E+00   -.121E-02 -.964E-03 -.431E-03
   -.218E+01 -.506E+01 -.441E+01   0.224E+01 0.487E+01 0.383E+01   -.265E+00 0.507E+00 0.686E+00   0.591E-03 -.490E-03 0.734E-03
   0.245E+01 -.394E+01 -.283E+01   -.236E+01 0.339E+01 0.257E+01   -.477E+00 0.992E+00 0.649E+00   0.222E-03 -.121E-02 -.645E-03
   -.450E+00 -.432E+01 -.166E+01   0.402E+00 0.421E+01 0.139E+01   0.155E+00 0.856E+00 0.520E+00   0.110E-02 0.100E-05 -.166E-02
   -.242E+01 0.178E+00 -.310E+01   0.214E+01 0.228E+00 0.264E+01   0.553E+00 0.348E-01 0.543E+00   0.433E-03 0.275E-03 0.616E-03
 -----------------------------------------------------------------------------------------------
   -.762E-01 -.483E-01 0.645E-03   -.179E-12 -.132E-12 0.131E-12   0.784E-01 0.467E-01 -.173E-01   0.134E-02 0.897E-03 0.158E-03
 
 
 POSITION                                       TOTAL-FORCE (eV/Angst)
 -----------------------------------------------------------------------------------
     10.85615      0.06570      0.00734         0.946762     -0.296874     -0.076375
      2.83655      2.77176      0.02490        -0.454056     -0.258054     -0.011859
      2.72966      0.04235      2.78129         0.171954      0.108004     -0.394724
      0.03779      2.78727      2.73327         0.245384     -0.546984     -0.373983
      1.42296      1.40707      1.35400        -0.326992     -0.043695     -0.063321
      4.10652      4.12101      1.42219         0.567720     -0.078540     -0.194440
      3.99640      1.44920      4.17496         0.467711     -0.075659      0.015694
      1.47498      4.05845      4.00751        -0.552633      0.412168      0.972783
      0.08294      0.07866      5.49514        -0.093754     -0.299065      0.440121
      2.70123      2.84598      5.57169         0.122296     -0.416022     -0.249825
      2.74173      0.09207      8.13985        -0.364759     -0.494544      0.562528
     10.82644      2.76921      8.31838         0.009009     -0.005047     -0.146642
      1.34256      1.48706      6.92299        -0.278866     -0.139330     -0.307762
      4.13165      4.19718      6.83308        -0.352448     -0.016255      0.125035
      4.09895      1.47315      9.43665         0.202484     -0.567864      0.843773
      1.42733      4.10997      9.58204        -0.362173      0.119886      0.131253
      0.04628      5.41963      0.10068         0.073249      0.129043      0.123526
      2.74395      8.11747      0.07741        -0.405717      0.559358     -0.219527
      2.82568      5.45391      2.79097        -0.040261      0.292958     -0.164699
      0.13181      8.20789      2.83428        -0.451498     -0.193169     -0.147856
      1.44961      6.78370      1.47921        -0.633672      0.078232     -0.254488
      4.05279      9.49021      1.42468         0.605851      0.504479      0.077580
      4.20958      6.81015      4.08237        -0.256056      0.477956      0.177796
      1.46684      9.58184      4.18582        -0.296204     -0.073787      0.083480
      0.10609      5.41466      5.42408        -0.077015      0.397928      0.008185
      2.85828      8.19181      5.46335        -0.218161     -0.150070      0.020126
      2.74332      5.50519      8.20809        -0.182962     -0.109353     -0.213857
      0.04747      8.14285      8.18152        -0.283131      0.092480     -0.121198
      1.42939      6.84994      6.79245        -0.031043     -0.193669     -0.163848
      4.10644      9.60552      6.84342         0.118966     -0.075608     -0.128177
      4.06271      6.84336      9.56733         0.401883      0.063768     -0.083158
      1.38104      9.51651      9.54114         0.050158      0.513267      0.191985
      5.39742      0.08033      0.05318         0.130124      0.042789      0.311730
      8.16066      2.75326      0.09230        -0.432917      0.376445     -0.014357
      8.30405      0.07548      2.74339        -0.440367     -0.205280      0.119291
      5.42666      2.82500      2.86713         0.244136     -0.599690     -0.424433
      6.83853      1.43232      1.48062        -0.735435     -0.227061     -0.078483
      9.47948      4.11478      1.46694         0.619739     -0.048141     -0.627670
      9.64120      1.41641      4.12319        -0.369092      0.187813      0.181624
      6.86505      4.18397      4.09916        -0.159199     -0.178446      0.640747
      5.42559      0.04420      5.43224         0.466053      0.338149     -0.049881
      8.25452      2.82533      5.46604        -0.115661     -0.253464     -0.022235
      8.06467      0.02848      8.24796         0.406736     -0.036255     -0.902399
      5.45454      2.80380      8.13040         0.158492     -0.007839     -0.065815
      6.79602      1.48010      6.78151         0.361865     -0.731930     -0.121034
      9.58550      4.17795      6.87210         0.204531     -0.432492     -0.286492
      9.39989      1.38250      9.62473         0.486246      0.000662     -0.497904
      6.80975      4.08068      9.51231         0.076103      0.399452      0.521159
      5.43497      5.46112      0.01987         0.478814     -0.135616     -0.197134
      8.24151      8.24754      0.01404         0.188522     -0.546418      0.109697
      8.19447      5.51266      2.75040        -0.000969      0.280982      0.115243
      5.56711      8.13418      2.70822        -0.321307      0.560623     -0.152478
      6.88960      6.79646      1.31609        -0.093989      0.301130     -0.146173
      9.64733      9.55538      1.42064        -0.261899     -0.249342      0.083671
      9.54883      6.83440      4.13985         0.344409      0.069871     -0.009762
      6.85108      9.59451      4.05956        -0.125808      0.079877      0.033716
      5.48167      5.51349      5.49538         0.566391     -0.134018     -0.020221
      8.12583      8.19604      5.44130         0.440826      0.128563      0.335133
      8.19202      5.47478      8.19219        -0.344087      0.081145      0.106471
      5.41329      8.26915      8.24349         0.117473     -0.723520     -0.229743
      6.81525      6.86428      6.87768        -0.204574      0.318368      0.105222
      9.54939      9.52825      6.81462        -0.388154      0.437933      0.392258
      9.56635      6.75467      9.56146         0.107780      0.748997      0.239286
      6.73612      9.55014      9.63012         0.273192      0.440770      0.092842
 -----------------------------------------------------------------------------------
    total drift:                                0.003524     -0.000635     -0.016471


--------------------------------------------------------------------------------------------------------



  FREE ENERGIE OF THE ION-ELECTRON SYSTEM (eV)
  ---------------------------------------------------
  free  energy   TOTEN  =      -345.31497181 eV

  energy  without entropy=     -345.31497181  energy(sigma->0) =     -345.31497181
 


--------------------------------------------------------------------------------------------------------


    POTLOK:  cpu time      0.0801: real time      0.0803


--------------------------------------------------------------------------------------------------------


 writing wavefunctions
     LOOP+:  cpu time    219.0311: real time    226.4886
    4ORBIT:  cpu time      0.0000: real time      0.0000

 total amount of memory used by VASP MPI-rank0    37861. kBytes
=======================================================================

   base      :      30000. kBytes
   nonlr-proj:       1201. kBytes
   fftplans  :        841. kBytes
   grid      :       1174. kBytes
   one-center:          9. kBytes
   wavefun   :       4636. kBytes
 
  
  
 General timing and accounting informations for this job:
 ========================================================
  
                  Total CPU time used (sec):      259.038
                            User time (sec):      258.855
                          System time (sec):        0.183
                         Elapsed time (sec):      270.261
  
                   Maximum memory used (kb):      215052.
                   Average memory used (kb):          N/A
  
                          Minor page faults:        19337
                          Major page faults:         8112
                 Voluntary context switches:         4149
