 vasp.6.4.2 20Jul23 (build Jun 27 2024 19:57:08) complex                        
  
 executed on                 T2A5 date 2026.01.13  22:30:07
 running   28 mpi-ranks, with    1 threads/rank, on    1 nodes
 distrk:  each k-point on   28 cores,    1 groups
 distr:  one band on NCORE=  28 cores,    1 groups


--------------------------------------------------------------------------------------------------------


 INCAR:
   ISTART = 1
   ICHARG = 1
   LWAVE = .T.
   LCHARG = .T.
   ENCUT = 250
   PREC = Normal
   ADDGRID = .F.
   EDIFF = 1E-4
   LREAL = Auto
   ALGO = Fast
   NSW = 0
   IBRION = -1
   ISMEAR = 0
   SIGMA = 0.1
   NPAR = 1
   KPAR = 1
   SYMPREC = 1E-4

 POTCAR:    PAW_PBE Si 05Jan2001                  
 POTCAR:    PAW_PBE Si 05Jan2001                  
   SHA256 =  79d9987ad8750f624c4d6acb2a16d13abf6a777132adc04dc6c8399be72b42bb Si/POTCAR             
   COPYR  = (c) Copyright 05Jan2001 Georg Kresse                                                    
   COPYR  = This file is part of the software VASP. Any use, copying, and all other rights are regul
   COPYR  = If you do not have a valid VASP license, you may not use, copy or distribute this file. 
   VRHFIN =Si: s2p2                                                                                 
   LEXCH  = PE                                                                                      
   EATOM  =   103.0669 eV,    7.5752 Ry                                                             
                                                                                                    
   TITEL  = PAW_PBE Si 05Jan2001                                                                    
   LULTRA =        F    use ultrasoft PP ?                                                          
   IUNSCR =        1    unscreen: 0-lin 1-nonlin 2-no                                               
   RPACOR =    1.500    partial core radius                                                         
   POMASS =   28.085; ZVAL   =    4.000    mass and valenz                                          
   RCORE  =    1.900    outmost cutoff radius                                                       
   RWIGS  =    2.480; RWIGS  =    1.312    wigner-seitz radius (au A)                               
   ENMAX  =  245.345; ENMIN  =  184.009 eV                                                          
   ICORE  =        2    local potential                                                             
   LCOR   =        T    correct aug charges                                                         
   LPAW   =        T    paw PP                                                                      
   EAUG   =  322.069                                                                                
   DEXC   =    0.000                                                                                
   RMAX   =    1.950    core radius for proj-oper                                                   
   RAUG   =    1.300    factor for augmentation sphere                                              
   RDEP   =    1.993    radius for radial grids                                                     
   RDEPT  =    1.837    core radius for aug-charge                                                  
                                                                                                    
   Atomic configuration                                                                             
    6 entries                                                                                       
     n  l   j            E        occ.                                                              
     1  0  0.50     -1785.8828   2.0000                                                             
     2  0  0.50      -139.4969   2.0000                                                             
     2  1  1.50       -95.5546   6.0000                                                             
     3  0  0.50       -10.8127   2.0000                                                             
     3  1  0.50        -4.0811   2.0000                                                             
     3  2  1.50        -4.0817   0.0000                                                             
   Description                                                                                      
     l       E           TYP  RCUT    TYP  RCUT                                                     
     0    -10.8127223     23  1.900                                                                 
     0     -7.6451159     23  1.900                                                                 
     1     -4.0811372     23  1.900                                                                 
     1      2.4879257     23  1.900                                                                 
     2     -4.0817478      7  1.900                                                                 
  local pseudopotential read in
  partial core-charges read in
  partial kinetic energy density read in
  atomic valenz-charges read in
  non local Contribution for L=           0  read in
    real space projection operators read in
  non local Contribution for L=           0  read in
    real space projection operators read in
  non local Contribution for L=           1  read in
    real space projection operators read in
  non local Contribution for L=           1  read in
    real space projection operators read in
    PAW grid and wavefunctions read in
 
   number of l-projection  operators is LMAX  =           4
   number of lm-projection operators is LMMAX =           8
 
 Optimization of the real space projectors (new method)

 maximal supplied QI-value         = 19.84
 optimisation between [QCUT,QGAM] = [  7.94, 16.07] = [ 17.64, 72.34] Ry 
 Optimized for a Real-space Cutoff    1.55 Angstroem

   l    n(q)    QCUT    max X(q) W(low)/X(q) W(high)/X(q)  e(spline) 
   0      7     7.937   159.560    0.97E-04    0.31E-03    0.13E-06
   0      7     7.937   115.863    0.95E-04    0.31E-03    0.13E-06
   1      7     7.937    88.339    0.40E-03    0.66E-03    0.12E-06
   1      7     7.937    48.592    0.39E-03    0.64E-03    0.12E-06
  PAW_PBE Si 05Jan2001                  :
 energy of atom  1       EATOM= -103.0669
 kinetic energy error for atom=    0.0052 (will be added to EATOM!!)
 
 
 POSCAR: Si
  positions in cartesian coordinates
  No initial velocities read in
 exchange correlation table for  LEXCH =        8
   RHO(1)=    0.500       N(1)  =     2000
   RHO(2)=  100.500       N(2)  =     4000
 


--------------------------------------------------------------------------------------------------------


 ion  position               nearest neighbor table
   1  0.999  0.005  0.999-  47 2.31  54 2.33   5 2.36  32 2.43
   2  0.258  0.256  0.001-  16 2.31   6 2.34  15 2.38   5 2.40
   3  0.248  0.008  0.254-   5 2.32   7 2.35  24 2.36  22 2.39
   4  0.008  0.256  0.252-   8 2.26  38 2.31  39 2.35   5 2.39
   5  0.128  0.126  0.123-   3 2.32   1 2.36   4 2.39   2 2.40
   6  0.383  0.376  0.129-   2 2.34  36 2.35  19 2.37  49 2.39
   7  0.366  0.134  0.384-   3 2.35  41 2.37  10 2.38  36 2.39
   8  0.136  0.372  0.367-   4 2.26  19 2.29  10 2.36  25 2.42
   9  0.007  0.002  0.505-  24 2.30  39 2.36  62 2.39  13 2.44
  10  0.247  0.260  0.517-  13 2.30  14 2.33   8 2.36   7 2.38
  11  0.250  0.005  0.747-  13 2.33  15 2.33  30 2.34  32 2.37
  12  0.996  0.254  0.766-  16 2.32  13 2.33  46 2.41  47 2.45
  13  0.124  0.139  0.639-  10 2.30  11 2.33  12 2.33   9 2.44
  14  0.382  0.384  0.627-  44 2.29  57 2.32  10 2.33  27 2.38
  15  0.376  0.132  0.866-  44 2.32  11 2.33   2 2.38  33 2.44
  16  0.129  0.375  0.882-   2 2.31  12 2.32  17 2.35  27 2.40
  17  0.004  0.497  0.008-  63 2.33  16 2.35  38 2.39  21 2.40
  18  0.251  0.747  0.007-  21 2.33  22 2.36  31 2.37  32 2.41
  19  0.259  0.501  0.257-   8 2.29  21 2.33   6 2.37  23 2.40
  20  0.013  0.749  0.261-  55 2.32  21 2.32  24 2.38  54 2.41
  21  0.132  0.624  0.136-  20 2.32  18 2.33  19 2.33  17 2.40
  22  0.374  0.877  0.131-  18 2.36  33 2.36   3 2.39  52 2.43
  23  0.393  0.630  0.375-  52 2.26  57 2.28  26 2.34  19 2.40
  24  0.134  0.880  0.387-   9 2.30  26 2.36   3 2.36  20 2.38
  25  0.007  0.498  0.497-  46 2.36  55 2.37   8 2.42  29 2.43
  26  0.267  0.751  0.500-  23 2.34  30 2.36  24 2.36  29 2.38
  27  0.251  0.505  0.753-  29 2.33  31 2.34  14 2.38  16 2.40
  28  0.009  0.749  0.748-  29 2.32  32 2.34  62 2.40  63 2.50
  29  0.134  0.630  0.625-  28 2.32  27 2.33  26 2.38  25 2.43
  30  0.381  0.884  0.629-  41 2.28  11 2.34  60 2.35  26 2.36
  31  0.377  0.623  0.881-  49 2.24  27 2.34  18 2.37  60 2.40
  32  0.129  0.875  0.874-  28 2.34  11 2.37  18 2.41   1 2.43
  33  0.496  0.003  0.004-  64 2.33  22 2.36  37 2.43  15 2.44
  34  0.745  0.253  0.009-  37 2.32  47 2.32  48 2.35  38 2.36
  35  0.766  0.003  0.249-  54 2.27  39 2.37  56 2.38  37 2.41
  36  0.502  0.260  0.267-  40 2.29   6 2.35   7 2.39  37 2.43
  37  0.625  0.131  0.134-  34 2.32  35 2.41  33 2.43  36 2.43
  38  0.875  0.373  0.135-  51 2.30   4 2.31  34 2.36  17 2.39
  39  0.885  0.131  0.379-  42 2.34   4 2.35   9 2.36  35 2.37
  40  0.634  0.382  0.376-  36 2.29  51 2.35  42 2.38  57 2.44
  41  0.496  0.001  0.498-  30 2.28   7 2.37  56 2.41  45 2.45
  42  0.762  0.256  0.502-  39 2.34  45 2.36  46 2.37  40 2.38
  43  0.740  0.005  0.752-  45 2.33  47 2.36  64 2.39  62 2.40
  44  0.500  0.257  0.747-  14 2.29  15 2.32  48 2.34  45 2.36
  45  0.629  0.135  0.622-  43 2.33  42 2.36  44 2.36  41 2.45
  46  0.879  0.385  0.631-  59 2.31  25 2.36  42 2.37  12 2.41
  47  0.861  0.122  0.887-   1 2.31  34 2.32  43 2.36  12 2.45
  48  0.627  0.374  0.874-  44 2.34  34 2.35  59 2.36  49 2.38
  49  0.501  0.505  0.996-  31 2.24  53 2.37  48 2.38   6 2.39
  50  0.761  0.757  0.003-  63 2.35  54 2.39  53 2.39  64 2.40
  51  0.757  0.505  0.249-  38 2.30  40 2.35  53 2.36  55 2.37
  52  0.510  0.743  0.247-  23 2.26  53 2.28  22 2.43  56 2.44
  53  0.630  0.627  0.122-  52 2.28  51 2.36  49 2.37  50 2.39
  54  0.888  0.880  0.133-  35 2.27   1 2.33  50 2.39  20 2.41
  55  0.881  0.630  0.378-  20 2.32  58 2.37  51 2.37  25 2.37
  56  0.633  0.881  0.373-  58 2.35  35 2.38  41 2.41  52 2.44
  57  0.505  0.511  0.506-  23 2.28  61 2.30  14 2.32  40 2.44
  58  0.751  0.753  0.501-  61 2.31  56 2.35  55 2.37  62 2.41
  59  0.753  0.504  0.754-  46 2.31  63 2.33  48 2.36  61 2.42
  60  0.499  0.761  0.761-  64 2.26  30 2.35  31 2.40  61 2.44
  61  0.627  0.635  0.626-  57 2.30  58 2.31  59 2.42  60 2.44
  62  0.876  0.880  0.631-   9 2.39  43 2.40  28 2.40  58 2.41
  63  0.877  0.619  0.884-  59 2.33  17 2.33  50 2.35  28 2.50
  64  0.619  0.877  0.883-  60 2.26  33 2.33  43 2.39  50 2.40
 
  LATTYP: Found a base centered monoclinic cell.
 ALAT       =    26.6821484588
 B/A-ratio  =     0.5766539111
 C/A-ratio  =     0.4079875408
 COS(beta)  =    -0.8165597806
  
  Lattice vectors:
  
 A1 = (  10.8936237700, -10.8859807300,   0.0000000000)
 A2 = (   0.0200669200, -10.8929644500, -10.8860437600)
 A3 = (  -0.0086090100,  10.8859807300,   0.0000000000)


Analysis of symmetry for initial positions (statically):
=====================================================================
 Subroutine PRICEL returns:
 Original cell was already a primitive cell.
 

 Routine SETGRP: Setting up the symmetry group for a 
 base centered monoclinic supercell.


 Subroutine GETGRP returns: Found  1 space group operations
 (whereof  1 operations were pure point group operations)
 out of a pool of  4 trial point group operations.


The static configuration has the point symmetry C_1 .


Analysis of symmetry for dynamics (positions and initial velocities):
=====================================================================
 Subroutine PRICEL returns:
 Original cell was already a primitive cell.
 

 Routine SETGRP: Setting up the symmetry group for a 
 base centered monoclinic supercell.


 Subroutine GETGRP returns: Found  1 space group operations
 (whereof  1 operations were pure point group operations)
 out of a pool of  4 trial point group operations.


The dynamic configuration has the point symmetry C_1 .


 Subroutine INISYM returns: Found  1 space group operations
 (whereof  1 operations are pure point group operations),
 and found     1 'primitive' translations


----------------------------------------------------------------------------------------

                                     Primitive cell                                     

  volume of cell :    1289.9315

  direct lattice vectors                    reciprocal lattice vectors
    10.885014760  0.000000000  0.000000000     0.091869421  0.000072654  0.000096649
    -0.008609010 10.885980730  0.000000000     0.000000000  0.091861269 -0.000058932
    -0.011457910  0.006983720 10.886043760     0.000000000  0.000000000  0.091860737

  length of vectors
    10.885014760 10.885984134 10.886052030     0.091869500  0.091861288  0.091860737

  position of ions in fractional coordinates (direct lattice)
     0.998553808  0.004730357  0.999390086
     0.257997946  0.256402802  0.001247483
     0.248129233  0.008059777  0.253737104
     0.007680840  0.256092592  0.252334689
     0.128482419  0.126186887  0.122746494
     0.383123059  0.376253131  0.128935573
     0.366342616  0.133661594  0.384416263
     0.136052050  0.371834805  0.367209088
     0.007482535  0.002146133  0.504513042
     0.246783901  0.260463265  0.516679882
     0.249927704  0.005491327  0.747393464
     0.996233519  0.254417071  0.765685169
     0.123849642  0.139287961  0.638564531
     0.382204354  0.384134603  0.626951426
     0.375764629  0.131525192  0.865983418
     0.128686844  0.374850898  0.881709212
     0.003675474  0.497364582  0.007966775
     0.251213844  0.746700878  0.007404545
     0.259327027  0.500928785  0.256614916
     0.013270565  0.748547943  0.260663919
     0.131888958  0.623821564  0.135528847
     0.373635534  0.876590673  0.130967471
     0.392620721  0.629790710  0.375419494
     0.134309338  0.879967648  0.387332233
     0.007064349  0.497595875  0.497060251
     0.267320124  0.750768582  0.500494043
     0.251189414  0.505048419  0.753277633
     0.009267771  0.748838589  0.748171897
     0.134426896  0.629524940  0.624598869
     0.380948413  0.884260545  0.628732225
     0.377382700  0.622525757  0.881134381
     0.129444576  0.875311780  0.873830895
     0.496319458  0.003408253  0.004375817
     0.745373238  0.253370350  0.008902749
     0.765514855  0.003388490  0.248551798
     0.501942256  0.260483074  0.267161978
     0.624981366  0.130631517  0.134493223
     0.875129561  0.372797993  0.135109155
     0.885330942  0.130625453  0.378857879
     0.634072166  0.382050532  0.376218597
     0.496224259  0.001074602  0.498466726
     0.761781976  0.256397905  0.501590380
     0.739972851  0.004644289  0.751614349
     0.500261444  0.256936909  0.746526841
     0.629191910  0.134851106  0.622155045
     0.879182423  0.385478476  0.631354612
     0.861428006  0.121930353  0.887369731
     0.627378775  0.374098742  0.874468598
     0.501227217  0.505158627  0.996168329
     0.760892202  0.757275566  0.002729726
     0.756745724  0.505294157  0.248921026
     0.509866827  0.743336926  0.246701054
     0.630481840  0.626925360  0.122039371
     0.887599029  0.879686706  0.133332897
     0.881029258  0.629601962  0.377858670
     0.633470969  0.881228214  0.373272514
     0.504564164  0.510614824  0.505986820
     0.750757078  0.752838911  0.501328507
     0.752582389  0.503548124  0.754244551
     0.499297028  0.760775878  0.760760840
     0.626522332  0.634591252  0.626246453
     0.876326984  0.880388858  0.631406427
     0.877160234  0.618733784  0.884468263
     0.619282320  0.877414606  0.883298230

  ion indices of the primitive-cell ions
   primitive index   ion index
                 1           1
                 2           2
                 3           3
                 4           4
                 5           5
                 6           6
                 7           7
                 8           8
                 9           9
                10          10
                11          11
                12          12
                13          13
                14          14
                15          15
                16          16
                17          17
                18          18
                19          19
                20          20
                21          21
                22          22
                23          23
                24          24
                25          25
                26          26
                27          27
                28          28
                29          29
                30          30
                31          31
                32          32
                33          33
                34          34
                35          35
                36          36
                37          37
                38          38
                39          39
                40          40
                41          41
                42          42
                43          43
                44          44
                45          45
                46          46
                47          47
                48          48
                49          49
                50          50
                51          51
                52          52
                53          53
                54          54
                55          55
                56          56
                57          57
                58          58
                59          59
                60          60
                61          61
                62          62
                63          63
                64          64

----------------------------------------------------------------------------------------

 
 
 KPOINTS: K-Points                                

Automatic generation of k-mesh.
 Grid dimensions read from file:
 generate k-points for:    2    2    2

 Generating k-lattice:

  Cartesian coordinates                     Fractional coordinates (reciprocal lattice)
     0.045934710  0.000036327  0.000048324     0.500000000 -0.000000000 -0.000000000
     0.000000000  0.045930634 -0.000029466     0.000000000  0.500000000  0.000000000
     0.000000000  0.000000000  0.045930368     0.000000000  0.000000000  0.500000000

  Length of vectors
     0.045934750  0.045930644  0.045930368

  Shift w.r.t. Gamma in fractional coordinates (k-lattice)
     0.500000000  0.500000000  0.500000000

 
 Subroutine IBZKPT returns following result:
 ===========================================
 
 Found      4 irreducible k-points:
 
 Following reciprocal coordinates:
            Coordinates               Weight
  0.250000  0.250000  0.250000      2.000000
  0.250000 -0.250000  0.250000      2.000000
 -0.250000  0.250000  0.250000      2.000000
 -0.250000 -0.250000  0.250000      2.000000
 
 Following cartesian coordinates:
            Coordinates               Weight
  0.022967  0.022983  0.022975      2.000000
  0.022967 -0.022947  0.023004      2.000000
 -0.022967  0.022947  0.022926      2.000000
 -0.022967 -0.022983  0.022956      2.000000
 


--------------------------------------------------------------------------------------------------------




 Dimension of arrays:
   k-points           NKPTS =      4   k-points in BZ     NKDIM =      4   number of bands    NBANDS=    161
   number of dos      NEDOS =    301   number of ions     NIONS =     64
   non local maximal  LDIM  =      4   non local SUM 2l+1 LMDIM =      8
   total plane-waves  NPLWV =  74088
   max r-space proj   IRMAX =    948   max aug-charges    IRDMAX=   2120
   dimension x,y,z NGX =    42 NGY =   42 NGZ =   42
   dimension x,y,z NGXF=    84 NGYF=   84 NGZF=   84
   support grid    NGXF=    84 NGYF=   84 NGZF=   84
   ions per type =              64
   NGX,Y,Z   is equivalent  to a cutoff of   6.41,  6.41,  6.41 a.u.
   NGXF,Y,Z  is equivalent  to a cutoff of  12.83, 12.83, 12.83 a.u.

 SYSTEM =  unknown system                          
 POSCAR =  Si                                      

 Startparameter for this run:
   NWRITE =      2    write-flag & timer
   PREC   = normal    normal or accurate (medium, high low for compatibility)
   ISTART =      1    job   : 0-new  1-cont  2-samecut
   ICHARG =      1    charge: 1-file 2-atom 10-const
   ISPIN  =      1    spin polarized calculation?
   LNONCOLLINEAR =      F non collinear calculations
   LSORBIT =      F    spin-orbit coupling
   INIWAV =      1    electr: 0-lowe 1-rand  2-diag
   LASPH  =      F    aspherical Exc in radial PAW
 Electronic Relaxation 1
   ENCUT  =  250.0 eV  18.37 Ry    4.29 a.u.  14.03 14.03 14.03*2*pi/ulx,y,z
   ENINI  =  250.0     initial cutoff
   ENAUG  =  322.1 eV  augmentation charge cutoff
   NELM   =     60;   NELMIN=  2; NELMDL=  0     # of ELM steps 
   EDIFF  = 0.1E-03   stopping-criterion for ELM
   LREAL  =      T    real-space projection
   NLSPLINE    = F    spline interpolate recip. space projectors
   LCOMPAT=      F    compatible to vasp.4.4
   GGA_COMPAT  = T    GGA compatible to vasp.4.4-vasp.4.6
   LMAXPAW     = -100 max onsite density
   LMAXMIX     =    2 max onsite mixed and CHGCAR
   VOSKOWN=      0    Vosko Wilk Nusair interpolation
   ROPT   =   -0.00050
 Ionic relaxation
   EDIFFG = 0.1E-02   stopping-criterion for IOM
   NSW    =      0    number of steps for IOM
   NBLOCK =      1;   KBLOCK =      1    inner block; outer block 
   IBRION =     -1    ionic relax: 0-MD 1-quasi-New 2-CG
   NFREE  =      0    steps in history (QN), initial steepest desc. (CG)
   ISIF   =      2    stress and relaxation
   IWAVPR =     10    prediction:  0-non 1-charg 2-wave 3-comb
   ISYM   =      2    0-nonsym 1-usesym 2-fastsym
   LCORR  =      T    Harris-Foulkes like correction to forces

   POTIM  = 0.5000    time-step for ionic-motion
   TEIN   =    0.0    initial temperature
   TEBEG  =    0.0;   TEEND  =   0.0 temperature during run
   SMASS  =  -3.00    Nose mass-parameter (am)
   estimated Nose-frequenzy (Omega)   =  0.10E-29 period in steps = 0.13E+47 mass=  -0.271E-26a.u.
   SCALEE = 1.0000    scale energy and forces
   NPACO  =    256;   APACO  = 10.0  distance and # of slots for P.C.
   PSTRESS=    0.0 pullay stress

  Mass of Ions in am
   POMASS =  28.09
  Ionic Valenz
   ZVAL   =   4.00
  Atomic Wigner-Seitz radii
   RWIGS  =  -1.00
  virtual crystal weights 
   VCA    =   1.00
   NELECT =     256.0000    total number of electrons
   NUPDOWN=      -1.0000    fix difference up-down

 DOS related values:
   EMIN   =  10.00;   EMAX   =-10.00  energy-range for DOS
   EFERMI =   0.00;   METHOD = LEGACY      
   ISMEAR =     0;   SIGMA  =   0.10  broadening in eV -4-tet -1-fermi 0-gaus

 Electronic relaxation 2 (details)
   IALGO  =     68    algorithm
   LDIAG  =      T    sub-space diagonalisation (order eigenvalues)
   LSUBROT=      F    optimize rotation matrix (better conditioning)
   TURBO    =      0    0=normal 1=particle mesh
   IRESTART =      0    0=no restart 2=restart with 2 vectors
   NREBOOT  =      0    no. of reboots
   NMIN     =      0    reboot dimension
   EREF     =   0.00    reference energy to select bands
   IMIX   =      4    mixing-type and parameters
     AMIX     =   0.40;   BMIX     =  1.00
     AMIX_MAG =   1.60;   BMIX_MAG =  1.00
     AMIN     =   0.10
     WC   =   100.;   INIMIX=   1;  MIXPRE=   1;  MAXMIX= -45

 Intra band minimization:
   WEIMIN = 0.0000     energy-eigenvalue tresh-hold
   EBREAK =  0.16E-06  absolut break condition
   DEPER  =   0.30     relativ break condition  

   TIME   =   0.40     timestep for ELM

  volume/ion in A,a.u.               =      20.16       136.01
  Fermi-wavevector in a.u.,A,eV,Ry     =   0.954918  1.804533 12.406714  0.911868
  Thomas-Fermi vector in A             =   2.083708
 
 Write flags
   LWAVE        =      T    write WAVECAR
   LDOWNSAMPLE  =      F    k-point downsampling of WAVECAR
   LCHARG       =      T    write CHGCAR
   LVTOT        =      F    write LOCPOT, total local potential
   LVHAR        =      F    write LOCPOT, Hartree potential only
   LELF         =      F    write electronic localiz. function (ELF)
   LORBIT       =      0    0 simple, 1 ext, 2 COOP (PROOUT), +10 PAW based schemes


 Dipole corrections
   LMONO  =      F    monopole corrections only (constant potential shift)
   LDIPOL =      F    correct potential (dipole corrections)
   IDIPOL =      0    1-x, 2-y, 3-z, 4-all directions 
   EPSILON=  1.0000000 bulk dielectric constant

 Exchange correlation treatment:
   GGA     =    --    GGA type
   LEXCH   =     8    internal setting for exchange type
   LIBXC   =     F    Libxc                    
   VOSKOWN =     0    Vosko Wilk Nusair interpolation
   LHFCALC =     F    Hartree Fock is set to
   LHFONE  =     F    Hartree Fock one center treatment
   AEXX    =    0.0000 exact exchange contribution

 Linear response parameters
   LEPSILON=     F    determine dielectric tensor
   LRPA    =     F    only Hartree local field effects (RPA)
   LNABLA  =     F    use nabla operator in PAW spheres
   LVEL    =     F    velocity operator in full k-point grid
   CSHIFT  =0.1000    complex shift for real part using Kramers Kronig
   OMEGAMAX=  -1.0    maximum frequency
   DEG_THRESHOLD= 0.2000000E-02 threshold for treating states as degnerate
   RTIME   =   -0.100 relaxation time in fs
  (WPLASMAI=    0.000 imaginary part of plasma frequency in eV, 0.658/RTIME)
   DFIELD  = 0.0000000 0.0000000 0.0000000 field for delta impulse in time
 
  Optional k-point grid parameters
   LKPOINTS_OPT  =     F    use optional k-point grid
   KPOINTS_OPT_MODE=     1    mode for optional k-point grid
 
 Orbital magnetization related:
   ORBITALMAG=     F  switch on orbital magnetization
   LCHIMAG   =     F  perturbation theory with respect to B field
   DQ        =  0.001000  dq finite difference perturbation B field
   LLRAUG    =     F  two centre corrections for induced B field
   LBONE     =     F  B-component reconstruction in AE one-centre
   LVGVCALC  =     T  calculate vGv susceptibility
   LVGVAPPL  =     F  apply vGv susceptibility instead of pGv for G=0

 Random number generation:
   RANDOM_GENERATOR = DEFAULT
   PCG_SEED         = not used


--------------------------------------------------------------------------------------------------------


 Static calculation
 charge density and potential will be updated during run
 non-spin polarized calculation
 RMM-DIIS sequential band-by-band and
  variant of blocked Davidson during initial phase
 perform sub-space diagonalisation
    before iterative eigenvector-optimisation
 modified Broyden-mixing scheme, WC =      100.0
 initial mixing is a Kerker type mixing with AMIX =  0.4000 and BMIX =      1.0000
 Hartree-type preconditioning will be used
 using additional bands           33
 real space projection scheme for non local part
 use partial core corrections
 calculate Harris-corrections to forces 
   (improved forces if not selfconsistent)
 use gradient corrections 
 use of overlap-Matrix (Vanderbilt PP)
 Gauss-broadening in eV      SIGMA  =   0.10


--------------------------------------------------------------------------------------------------------


  energy-cutoff  :      250.00
  volume of cell :     1289.93
      direct lattice vectors                 reciprocal lattice vectors
    10.885014760  0.000000000  0.000000000     0.091869421  0.000072654  0.000096649
    -0.008609010 10.885980730  0.000000000     0.000000000  0.091861269 -0.000058932
    -0.011457910  0.006983720 10.886043760     0.000000000  0.000000000  0.091860737

  length of vectors
    10.885014760 10.885984134 10.886052030     0.091869500  0.091861288  0.091860737


 
 old parameters found on file WAVECAR:
  energy-cutoff  :      250.00
  volume of cell :     1290.45
      direct lattice vectors                 reciprocal lattice vectors
    10.886552890  0.000000000  0.000000000     0.091856441  0.000071442  0.000094197
    -0.008467740 10.887314080  0.000000000     0.000000000  0.091850019 -0.000057478
    -0.011170230  0.006813240 10.887549130     0.000000000  0.000000000  0.091848036

  length of vectors

 
 k-points in units of 2pi/SCALE and weight: K-Points                                
   0.02296736  0.02298348  0.02297461       0.250
   0.02296736 -0.02294715  0.02300408       0.250
  -0.02296736  0.02294715  0.02292629       0.250
  -0.02296736 -0.02298348  0.02295575       0.250
 
 k-points in reciprocal lattice and weights: K-Points                                
   0.25000000  0.25000000  0.25000000       0.250
   0.25000000 -0.25000000  0.25000000       0.250
  -0.25000000  0.25000000  0.25000000       0.250
  -0.25000000 -0.25000000  0.25000000       0.250
 
 position of ions in fractional coordinates (direct lattice) 
   0.99855381  0.00473036  0.99939009
   0.25799795  0.25640280  0.00124748
   0.24812923  0.00805978  0.25373710
   0.00768084  0.25609259  0.25233469
   0.12848242  0.12618689  0.12274649
   0.38312306  0.37625313  0.12893557
   0.36634262  0.13366159  0.38441626
   0.13605205  0.37183481  0.36720909
   0.00748253  0.00214613  0.50451304
   0.24678390  0.26046326  0.51667988
   0.24992770  0.00549133  0.74739346
   0.99623352  0.25441707  0.76568517
   0.12384964  0.13928796  0.63856453
   0.38220435  0.38413460  0.62695143
   0.37576463  0.13152519  0.86598342
   0.12868684  0.37485090  0.88170921
   0.00367547  0.49736458  0.00796677
   0.25121384  0.74670088  0.00740454
   0.25932703  0.50092879  0.25661492
   0.01327057  0.74854794  0.26066392
   0.13188896  0.62382156  0.13552885
   0.37363553  0.87659067  0.13096747
   0.39262072  0.62979071  0.37541949
   0.13430934  0.87996765  0.38733223
   0.00706435  0.49759588  0.49706025
   0.26732012  0.75076858  0.50049404
   0.25118941  0.50504842  0.75327763
   0.00926777  0.74883859  0.74817190
   0.13442690  0.62952494  0.62459887
   0.38094841  0.88426054  0.62873222
   0.37738270  0.62252576  0.88113438
   0.12944458  0.87531178  0.87383089
   0.49631946  0.00340825  0.00437582
   0.74537324  0.25337035  0.00890275
   0.76551485  0.00338849  0.24855180
   0.50194226  0.26048307  0.26716198
   0.62498137  0.13063152  0.13449322
   0.87512956  0.37279799  0.13510915
   0.88533094  0.13062545  0.37885788
   0.63407217  0.38205053  0.37621860
   0.49622426  0.00107460  0.49846673
   0.76178198  0.25639791  0.50159038
   0.73997285  0.00464429  0.75161435
   0.50026144  0.25693691  0.74652684
   0.62919191  0.13485111  0.62215504
   0.87918242  0.38547848  0.63135461
   0.86142801  0.12193035  0.88736973
   0.62737877  0.37409874  0.87446860
   0.50122722  0.50515863  0.99616833
   0.76089220  0.75727557  0.00272973
   0.75674572  0.50529416  0.24892103
   0.50986683  0.74333693  0.24670105
   0.63048184  0.62692536  0.12203937
   0.88759903  0.87968671  0.13333290
   0.88102926  0.62960196  0.37785867
   0.63347097  0.88122821  0.37327251
   0.50456416  0.51061482  0.50598682
   0.75075708  0.75283891  0.50132851
   0.75258239  0.50354812  0.75424455
   0.49929703  0.76077588  0.76076084
   0.62652233  0.63459125  0.62624645
   0.87632698  0.88038886  0.63140643
   0.87716023  0.61873378  0.88446826
   0.61928232  0.87741461  0.88329823
 
 position of ions in cartesian coordinates  (Angst):
  10.85778129  0.05847404 10.87940421
   2.80608978  2.79120467  0.01358015
   2.69791368  0.08951061  2.76219322
   0.07851012  2.78958126  2.74692647
   1.39604026  1.37452525  1.33622370
   4.16558365  4.09678478  1.40359829
   3.98208948  1.45772219  4.18477226
   1.47351999  4.05035101  3.99745420
   0.07564836  0.02688614  5.49215105
   2.67808400  2.83900643  5.62459981
   2.71185591  0.06499807  8.13615796
  10.83305313  2.77492666  8.33528226
   1.33958943  1.52074561  6.95144143
   4.14980946  4.18606034  6.82502066
   4.07914887  1.43782849  9.42713338
   1.38742856  4.08677726  9.59832506
   0.03563449  5.41435689  0.08672666
   2.72795320  8.12862308  0.08060620
   2.81552574  5.45489323  2.79352120
   0.13501938  8.15049889  2.83759883
   1.42868989  6.79185602  1.47537296
   4.05798111  9.54346381  1.42571762
   4.26395895  6.85851136  4.08683304
   1.44994546  9.58201588  4.21651564
   0.06691646  5.42029044  5.41101964
   2.89758551  8.17634763  5.44840005
   2.72122153  5.50320804  8.20021328
   0.08586058  8.15706747  8.14463201
   1.45066256  6.85735839  6.79941062
   4.13181253  9.63043414  6.84440651
   4.09236097  6.78295699  9.59206743
   1.39145828  9.53472976  9.51256136
   5.40236515  0.03713274  0.04763533
   8.11111542  2.75824692  0.09691572
   8.32976344  0.03862285  2.70574575
   5.45834525  2.83747951  2.90833698
   6.80026577  1.42299144  1.46409911
   9.52104070  4.05921533  1.47080417
   9.63137490  1.42463200  4.12426345
   6.89428513  4.16162213  4.09553211
   5.39568775  0.01517925  5.42633059
   8.28405354  2.79464562  5.46033483
   8.04596349  0.05580670  8.18210669
   5.43458759  2.80222377  8.12672386
   6.84047370  1.47233150  6.77280704
   9.55936106  4.20072047  6.87295393
   9.36543946  1.33352862  9.65994572
   6.81578702  4.07853874  9.51950342
   5.44010273  5.50610404 10.84433202
   8.27577218  8.24370628  0.02971592
   8.22998618  5.50236085  2.70976518
   5.54068186  8.09367434  2.68559847
   6.85600861  6.82554968  1.32852593
   9.65242758  9.57718369  1.45146775
   9.58026676  6.85647368  4.11338602
   6.88347742  9.59564019  4.06346092
   5.48199493  5.56207681  5.50819466
   8.15977650  8.19889102  5.45748406
   8.17889330  5.48688261  8.21073919
   5.41958926  8.28710449  8.28167579
   6.80706615  6.91252167  6.81734629
   9.52401828  9.58830571  6.87351800
   9.53244125  6.74170093  9.62836021
   6.72322277  9.55768720  9.61562319
 


--------------------------------------------------------------------------------------------------------


 k-point   1 :   0.2500 0.2500 0.2500  plane waves:   11576
 k-point   2 :   0.2500-0.2500 0.2500  plane waves:   11576
 k-point   3 :  -0.2500 0.2500 0.2500  plane waves:   11578
 k-point   4 :  -0.2500-0.2500 0.2500  plane waves:   11578

 maximum and minimum number of plane-waves per node :       426      401

 maximum number of plane-waves:     11578
 maximum index in each direction: 
   IXMAX=   14   IYMAX=   14   IZMAX=   13
   IXMIN=  -14   IYMIN=  -14   IZMIN=  -14


 real space projection operators:
  total allocation   :       3485.50 KBytes
  max/ min on nodes  :        173.25         76.19


 parallel 3D FFT for wavefunctions:
    minimum data exchange during FFTs selected (reduces bandwidth)
 parallel 3D FFT for charge:
    minimum data exchange during FFTs selected (reduces bandwidth)


 total amount of memory used by VASP MPI-rank0    37835. kBytes
=======================================================================

   base      :      30000. kBytes
   nonlr-proj:       1195. kBytes
   fftplans  :        841. kBytes
   grid      :       1174. kBytes
   one-center:          9. kBytes
   wavefun   :       4616. kBytes
 
     INWAV:  cpu time     16.6655: real time     16.7091
 Broyden mixing: mesh for mixing (old mesh)
   NGX = 29   NGY = 29   NGZ = 29
  (NGX  = 84   NGY  = 84   NGZ  = 84)
  gives a total of  24389 points

 initial charge density was supplied:
 number of electron     255.9999945 magnetization 
 keeping initial charge density in first step


--------------------------------------------------------------------------------------------------------


 Maximum index for non-local projection operator          112
 Maximum index for augmentation-charges          184 (set IRDMAX)


--------------------------------------------------------------------------------------------------------


 First call to EWALD:  gamma=   0.163
 Maximum number of real-space cells 3x 3x 3
 Maximum number of reciprocal cells 3x 3x 3

    FEWALD:  cpu time      0.0393: real time      0.0394


--------------------------------------- Ionic step        1  -------------------------------------------




--------------------------------------- Iteration      1(   1)  ---------------------------------------


    POTLOK:  cpu time      0.3273: real time      0.3403
    SETDIJ:  cpu time      0.1244: real time      0.1249
     EDDAV:  cpu time     42.5583: real time     42.6733
       DOS:  cpu time      0.0915: real time      0.0917
    CHARGE:  cpu time      4.4286: real time      4.4403
    MIXING:  cpu time      0.1722: real time      0.1726
    --------------------------------------------
      LOOP:  cpu time     47.7022: real time     47.8432

 eigenvalue-minimisations  :  1392
 total energy-change (2. order) :-0.3446858E+03  (-0.6267081E-01)
 number of electron     255.9999953 magnetization 
 augmentation part      -14.6510470 magnetization 

 Broyden mixing:
  rms(total) = 0.44037E-01    rms(broyden)= 0.44034E-01
  rms(prec ) = 0.46606E-01
  weight for this iteration     100.00

 Free energy of the ion-electron system (eV)
  ---------------------------------------------------
  alpha Z        PSCENC =       106.89263754
  Ewald energy   TEWEN  =     -7292.68456791
  -Hartree energ DENC   =      -482.65292905
  -exchange      EXHF   =         0.00000000
  -V(xc)+E(xc)   XCENC  =      -575.73815924
  PAW double counting   =     31830.81751186   -30712.00968433
  entropy T*S    EENTRO =        -0.00000000
  eigenvalues    EBANDS =       184.73741728
  atomic energy  EATOM  =      6595.95197522
  Solvation  Ediel_sol  =         0.00000000
  ---------------------------------------------------
  free energy    TOTEN  =      -344.68579863 eV

  energy without entropy =     -344.68579863  energy(sigma->0) =     -344.68579863


--------------------------------------------------------------------------------------------------------




--------------------------------------- Iteration      1(   2)  ---------------------------------------


    POTLOK:  cpu time      0.0470: real time      0.0482
    SETDIJ:  cpu time      0.0020: real time      0.0020
    EDDIAG:  cpu time      8.3074: real time      8.3298
  RMM-DIIS:  cpu time     22.1823: real time     22.2404
    ORTHCH:  cpu time      0.0704: real time      0.0706
       DOS:  cpu time      0.1338: real time      0.1342
    CHARGE:  cpu time      1.8528: real time      1.8576
    MIXING:  cpu time      0.0994: real time      0.2736
    --------------------------------------------
      LOOP:  cpu time     32.6952: real time     32.9562

 eigenvalue-minimisations  :  1308
 total energy-change (2. order) :-0.2944928E-02  (-0.3404334E-02)
 number of electron     255.9999953 magnetization 
 augmentation part      -14.6510559 magnetization 

 Broyden mixing:
  rms(total) = 0.16097E-01    rms(broyden)= 0.16096E-01
  rms(prec ) = 0.19194E-01
  weight for this iteration     100.00

 eigenvalues of (default mixing * dielectric matrix)
  average eigenvalue GAMMA=   1.3387
  1.3387

 Free energy of the ion-electron system (eV)
  ---------------------------------------------------
  alpha Z        PSCENC =       106.89263754
  Ewald energy   TEWEN  =     -7292.68456791
  -Hartree energ DENC   =      -482.58051041
  -exchange      EXHF   =         0.00000000
  -V(xc)+E(xc)   XCENC  =      -575.73838004
  PAW double counting   =     31853.02830884   -30734.22420181
  entropy T*S    EENTRO =        -0.00000000
  eigenvalues    EBANDS =       184.66599502
  atomic energy  EATOM  =      6595.95197522
  Solvation  Ediel_sol  =         0.00000000
  ---------------------------------------------------
  free energy    TOTEN  =      -344.68874356 eV

  energy without entropy =     -344.68874356  energy(sigma->0) =     -344.68874356


--------------------------------------------------------------------------------------------------------




--------------------------------------- Iteration      1(   3)  ---------------------------------------


    POTLOK:  cpu time      0.0477: real time      0.0489
    SETDIJ:  cpu time      0.0389: real time      0.0389
    EDDIAG:  cpu time      6.6788: real time      6.6965
  RMM-DIIS:  cpu time     26.6968: real time     26.7664
    ORTHCH:  cpu time      0.0783: real time      0.0787
       DOS:  cpu time      0.0494: real time      0.0495
    CHARGE:  cpu time      1.5668: real time      1.5710
    MIXING:  cpu time      0.0431: real time      0.0432
    --------------------------------------------
      LOOP:  cpu time     35.1998: real time     35.2931

 eigenvalue-minimisations  :  1501
 total energy-change (2. order) :-0.2961965E-03  (-0.5677501E-03)
 number of electron     255.9999953 magnetization 
 augmentation part      -14.6515510 magnetization 

 Broyden mixing:
  rms(total) = 0.72052E-02    rms(broyden)= 0.72047E-02
  rms(prec ) = 0.85210E-02
  weight for this iteration     100.00

 eigenvalues of (default mixing * dielectric matrix)
  average eigenvalue GAMMA=   1.6331
  1.6331  1.6331

 Free energy of the ion-electron system (eV)
  ---------------------------------------------------
  alpha Z        PSCENC =       106.89263754
  Ewald energy   TEWEN  =     -7292.68456791
  -Hartree energ DENC   =      -482.51557655
  -exchange      EXHF   =         0.00000000
  -V(xc)+E(xc)   XCENC  =      -575.73903681
  PAW double counting   =     31866.51853932   -30747.71784599
  entropy T*S    EENTRO =        -0.00000000
  eigenvalues    EBANDS =       184.60483543
  atomic energy  EATOM  =      6595.95197522
  Solvation  Ediel_sol  =         0.00000000
  ---------------------------------------------------
  free energy    TOTEN  =      -344.68903975 eV

  energy without entropy =     -344.68903975  energy(sigma->0) =     -344.68903975


--------------------------------------------------------------------------------------------------------




--------------------------------------- Iteration      1(   4)  ---------------------------------------


    POTLOK:  cpu time      0.0402: real time      0.0403
    SETDIJ:  cpu time      0.0456: real time      0.0458
    EDDIAG:  cpu time      6.5278: real time      6.5455
  RMM-DIIS:  cpu time     23.3568: real time     23.4175
    ORTHCH:  cpu time      0.2966: real time      0.2976
       DOS:  cpu time      0.1147: real time      0.1150
    CHARGE:  cpu time      2.2269: real time      2.2327
    MIXING:  cpu time      0.0003: real time      0.0003
    --------------------------------------------
      LOOP:  cpu time     32.6090: real time     32.6947

 eigenvalue-minimisations  :  1565
 total energy-change (2. order) :-0.8110082E-04  (-0.1094074E-03)
 number of electron     255.9999953 magnetization 
 augmentation part      -14.6516948 magnetization 

 Broyden mixing:
  rms(total) = 0.38115E-02    rms(broyden)= 0.38114E-02
  rms(prec ) = 0.42699E-02
  weight for this iteration     100.00

 eigenvalues of (default mixing * dielectric matrix)
  average eigenvalue GAMMA=   1.7416
  0.9947  1.8877  2.3423

 Free energy of the ion-electron system (eV)
  ---------------------------------------------------
  alpha Z        PSCENC =       106.89263754
  Ewald energy   TEWEN  =     -7292.68456791
  -Hartree energ DENC   =      -482.48873347
  -exchange      EXHF   =         0.00000000
  -V(xc)+E(xc)   XCENC  =      -575.73846838
  PAW double counting   =     31868.17932099   -30749.38173194
  entropy T*S    EENTRO =        -0.00000000
  eigenvalues    EBANDS =       184.58044710
  atomic energy  EATOM  =      6595.95197522
  Solvation  Ediel_sol  =         0.00000000
  ---------------------------------------------------
  free energy    TOTEN  =      -344.68912086 eV

  energy without entropy =     -344.68912086  energy(sigma->0) =     -344.68912086


--------------------------------------------------------------------------------------------------------




--------------------------------------- Iteration      1(   5)  ---------------------------------------


    POTLOK:  cpu time      0.0447: real time      0.0460
    SETDIJ:  cpu time      0.0019: real time      0.0020
    EDDIAG:  cpu time      7.2277: real time      7.2468
  RMM-DIIS:  cpu time     17.6265: real time     17.6722
    ORTHCH:  cpu time      0.4202: real time      0.4213
       DOS:  cpu time      0.0014: real time      0.0014
    --------------------------------------------
      LOOP:  cpu time     25.3223: real time     25.3896

 eigenvalue-minimisations  :   999
 total energy-change (2. order) :-0.1459744E-04  (-0.1890128E-04)
 number of electron     255.9999953 magnetization 
 augmentation part      -14.6516948 magnetization 

 Free energy of the ion-electron system (eV)
  ---------------------------------------------------
  alpha Z        PSCENC =       106.89263754
  Ewald energy   TEWEN  =     -7292.68456791
  -Hartree energ DENC   =      -482.47561227
  -exchange      EXHF   =         0.00000000
  -V(xc)+E(xc)   XCENC  =      -575.73805918
  PAW double counting   =     31865.09409662   -30746.29861439
  entropy T*S    EENTRO =        -0.00000000
  eigenvalues    EBANDS =       184.56900891
  atomic energy  EATOM  =      6595.95197522
  Solvation  Ediel_sol  =         0.00000000
  ---------------------------------------------------
  free energy    TOTEN  =      -344.68913545 eV

  energy without entropy =     -344.68913545  energy(sigma->0) =     -344.68913545


--------------------------------------------------------------------------------------------------------




 average (electrostatic) potential at core
  the test charge radii are     0.9892
  (the norm of the test charge is              1.0000)
       1 -83.3266       2 -83.3320       3 -83.3502       4 -83.3248       5 -83.3389
       6 -83.3499       7 -83.3633       8 -83.3636       9 -83.3302      10 -83.3754
      11 -83.3149      12 -83.3461      13 -83.3255      14 -83.3584      15 -83.3375
      16 -83.3163      17 -83.3227      18 -83.3277      19 -83.3557      20 -83.3398
      21 -83.3357      22 -83.3471      23 -83.3560      24 -83.3362      25 -83.3452
      26 -83.3491      27 -83.3313      28 -83.3170      29 -83.3330      30 -83.3087
      31 -83.3104      32 -83.3682      33 -83.3376      34 -83.3280      35 -83.3438
      36 -83.3689      37 -83.3388      38 -83.3213      39 -83.3255      40 -83.3443
      41 -83.3339      42 -83.3512      43 -83.3411      44 -83.3266      45 -83.3192
      46 -83.3393      47 -83.3473      48 -83.3507      49 -83.3165      50 -83.3716
      51 -83.3187      52 -83.3177      53 -83.3040      54 -83.3264      55 -83.3175
      56 -83.3471      57 -83.3295      58 -83.2842      59 -83.3503      60 -83.3405
      61 -83.3546      62 -83.3342      63 -83.3657      64 -83.2921
 
 
 
 E-fermi :   5.9858     XC(G=0):  -9.3872     alpha+bet :-11.8999

 Fermi energy:         5.9858476618

 k-point     1 :       0.2500    0.2500    0.2500
  band No.  band energies     occupation 
      1      -5.9744      2.00000
      2      -5.4954      2.00000
      3      -5.4511      2.00000
      4      -5.3585      2.00000
      5      -4.9842      2.00000
      6      -4.9404      2.00000
      7      -4.8405      2.00000
      8      -4.4998      2.00000
      9      -4.4384      2.00000
     10      -4.4151      2.00000
     11      -4.3122      2.00000
     12      -4.0527      2.00000
     13      -4.0250      2.00000
     14      -3.9923      2.00000
     15      -3.9355      2.00000
     16      -3.9076      2.00000
     17      -3.8814      2.00000
     18      -3.7668      2.00000
     19      -3.7298      2.00000
     20      -3.7108      2.00000
     21      -3.3209      2.00000
     22      -3.2905      2.00000
     23      -3.1741      2.00000
     24      -2.9224      2.00000
     25      -2.9133      2.00000
     26      -2.8568      2.00000
     27      -2.7776      2.00000
     28      -2.7599      2.00000
     29      -2.6938      2.00000
     30      -2.6614      2.00000
     31      -2.6474      2.00000
     32      -2.6165      2.00000
     33      -1.2376      2.00000
     34      -1.2182      2.00000
     35      -1.2008      2.00000
     36      -1.1755      2.00000
     37      -1.1479      2.00000
     38      -1.1274      2.00000
     39      -1.0875      2.00000
     40      -1.0602      2.00000
     41      -1.0322      2.00000
     42      -0.9526      2.00000
     43      -0.9359      2.00000
     44      -0.9117      2.00000
     45      -0.8822      2.00000
     46      -0.8185      2.00000
     47      -0.7609      2.00000
     48      -0.1546      2.00000
     49      -0.1346      2.00000
     50      -0.1146      2.00000
     51      -0.0562      2.00000
     52      -0.0363      2.00000
     53      -0.0244      2.00000
     54       0.0103      2.00000
     55       0.7865      2.00000
     56       0.8574      2.00000
     57       0.8823      2.00000
     58       1.1118      2.00000
     59       1.1525      2.00000
     60       1.1736      2.00000
     61       1.6591      2.00000
     62       1.6859      2.00000
     63       1.7077      2.00000
     64       1.7247      2.00000
     65       1.7519      2.00000
     66       1.7688      2.00000
     67       1.7788      2.00000
     68       1.8001      2.00000
     69       1.8321      2.00000
     70       2.3146      2.00000
     71       2.3371      2.00000
     72       2.3505      2.00000
     73       2.3729      2.00000
     74       2.4091      2.00000
     75       2.4359      2.00000
     76       2.4553      2.00000
     77       2.4873      2.00000
     78       2.5094      2.00000
     79       2.5358      2.00000
     80       2.5487      2.00000
     81       2.6060      2.00000
     82       2.7581      2.00000
     83       2.7971      2.00000
     84       2.8141      2.00000
     85       2.8400      2.00000
     86       2.8799      2.00000
     87       2.8982      2.00000
     88       3.0502      2.00000
     89       3.0878      2.00000
     90       3.0932      2.00000
     91       3.1123      2.00000
     92       3.1252      2.00000
     93       3.1534      2.00000
     94       3.3973      2.00000
     95       3.4368      2.00000
     96       3.4593      2.00000
     97       3.5045      2.00000
     98       3.5246      2.00000
     99       3.5419      2.00000
    100       3.5605      2.00000
    101       3.5922      2.00000
    102       3.6208      2.00000
    103       3.7791      2.00000
    104       3.8160      2.00000
    105       3.8498      2.00000
    106       3.8728      2.00000
    107       3.8902      2.00000
    108       3.9000      2.00000
    109       3.9332      2.00000
    110       3.9481      2.00000
    111       3.9625      2.00000
    112       4.1568      2.00000
    113       4.2119      2.00000
    114       4.2526      2.00000
    115       4.2893      2.00000
    116       4.4225      2.00000
    117       4.4679      2.00000
    118       4.4894      2.00000
    119       4.5116      2.00000
    120       4.5733      2.00000
    121       4.6218      2.00000
    122       4.6908      2.00000
    123       4.7019      2.00000
    124       4.9697      2.00000
    125       5.0297      2.00000
    126       5.0693      2.00000
    127       5.4957      2.00000
    128       5.4971      2.00000
    129       6.6168      0.00000
    130       6.6486      0.00000
    131       6.6907      0.00000
    132       7.0639      0.00000
    133       7.1033      0.00000
    134       7.1455      0.00000
    135       7.3647      0.00000
    136       7.5566      0.00000
    137       7.5671      0.00000
    138       7.6106      0.00000
    139       7.6576      0.00000
    140       7.7123      0.00000
    141       7.7408      0.00000
    142       7.8379      0.00000
    143       7.8688      0.00000
    144       7.8947      0.00000
    145       7.9331      0.00000
    146       7.9421      0.00000
    147       7.9996      0.00000
    148       8.0819      0.00000
    149       8.1268      0.00000
    150       8.1359      0.00000
    151       8.1670      0.00000
    152       8.2018      0.00000
    153       8.2257      0.00000
    154       8.2578      0.00000
    155       8.4243      0.00000
    156       8.4363      0.00000
    157       8.4694      0.00000
    158       8.4815      0.00000
    159       8.5788      0.00000
    160       8.5941      0.00000
    161       8.6234      0.00000

 k-point     2 :       0.2500   -0.2500    0.2500
  band No.  band energies     occupation 
      1      -5.9741      2.00000
      2      -5.4964      2.00000
      3      -5.4498      2.00000
      4      -5.3614      2.00000
      5      -4.9827      2.00000
      6      -4.9419      2.00000
      7      -4.8385      2.00000
      8      -4.4809      2.00000
      9      -4.4496      2.00000
     10      -4.4082      2.00000
     11      -4.3128      2.00000
     12      -4.0843      2.00000
     13      -4.0100      2.00000
     14      -3.9911      2.00000
     15      -3.9667      2.00000
     16      -3.9050      2.00000
     17      -3.8707      2.00000
     18      -3.7626      2.00000
     19      -3.7287      2.00000
     20      -3.7013      2.00000
     21      -3.3097      2.00000
     22      -3.2790      2.00000
     23      -3.1774      2.00000
     24      -2.9426      2.00000
     25      -2.9079      2.00000
     26      -2.8765      2.00000
     27      -2.7906      2.00000
     28      -2.7254      2.00000
     29      -2.6958      2.00000
     30      -2.6751      2.00000
     31      -2.6338      2.00000
     32      -2.6127      2.00000
     33      -1.2582      2.00000
     34      -1.2371      2.00000
     35      -1.1889      2.00000
     36      -1.1662      2.00000
     37      -1.1486      2.00000
     38      -1.1295      2.00000
     39      -1.0935      2.00000
     40      -1.0593      2.00000
     41      -0.9981      2.00000
     42      -0.9557      2.00000
     43      -0.9143      2.00000
     44      -0.8941      2.00000
     45      -0.8820      2.00000
     46      -0.8470      2.00000
     47      -0.7875      2.00000
     48      -0.1699      2.00000
     49      -0.1436      2.00000
     50      -0.0877      2.00000
     51      -0.0712      2.00000
     52      -0.0346      2.00000
     53      -0.0158      2.00000
     54       0.0358      2.00000
     55       0.7839      2.00000
     56       0.8223      2.00000
     57       0.8751      2.00000
     58       1.1288      2.00000
     59       1.1559      2.00000
     60       1.1650      2.00000
     61       1.6651      2.00000
     62       1.6993      2.00000
     63       1.7109      2.00000
     64       1.7273      2.00000
     65       1.7340      2.00000
     66       1.7694      2.00000
     67       1.7874      2.00000
     68       1.8084      2.00000
     69       1.8329      2.00000
     70       2.2906      2.00000
     71       2.3195      2.00000
     72       2.3435      2.00000
     73       2.3853      2.00000
     74       2.4151      2.00000
     75       2.4347      2.00000
     76       2.4558      2.00000
     77       2.4789      2.00000
     78       2.4979      2.00000
     79       2.5537      2.00000
     80       2.5868      2.00000
     81       2.5933      2.00000
     82       2.7738      2.00000
     83       2.7972      2.00000
     84       2.8230      2.00000
     85       2.8281      2.00000
     86       2.8749      2.00000
     87       2.9145      2.00000
     88       3.0764      2.00000
     89       3.0901      2.00000
     90       3.1062      2.00000
     91       3.1226      2.00000
     92       3.1323      2.00000
     93       3.1586      2.00000
     94       3.4066      2.00000
     95       3.4373      2.00000
     96       3.4490      2.00000
     97       3.4895      2.00000
     98       3.5070      2.00000
     99       3.5359      2.00000
    100       3.5555      2.00000
    101       3.5876      2.00000
    102       3.6194      2.00000
    103       3.7681      2.00000
    104       3.8096      2.00000
    105       3.8370      2.00000
    106       3.8472      2.00000
    107       3.8696      2.00000
    108       3.9015      2.00000
    109       3.9189      2.00000
    110       3.9416      2.00000
    111       3.9685      2.00000
    112       4.1498      2.00000
    113       4.2279      2.00000
    114       4.2573      2.00000
    115       4.2776      2.00000
    116       4.4334      2.00000
    117       4.4617      2.00000
    118       4.4932      2.00000
    119       4.5122      2.00000
    120       4.5455      2.00000
    121       4.5966      2.00000
    122       4.7000      2.00000
    123       4.7276      2.00000
    124       4.9820      2.00000
    125       5.0383      2.00000
    126       5.0752      2.00000
    127       5.5003      2.00000
    128       5.5258      2.00000
    129       6.6462      0.00000
    130       6.6657      0.00000
    131       6.6835      0.00000
    132       7.0756      0.00000
    133       7.1078      0.00000
    134       7.1501      0.00000
    135       7.3723      0.00000
    136       7.5642      0.00000
    137       7.5962      0.00000
    138       7.6261      0.00000
    139       7.6679      0.00000
    140       7.6930      0.00000
    141       7.7250      0.00000
    142       7.8441      0.00000
    143       7.8870      0.00000
    144       7.8975      0.00000
    145       7.9208      0.00000
    146       7.9507      0.00000
    147       7.9904      0.00000
    148       8.0254      0.00000
    149       8.0912      0.00000
    150       8.1099      0.00000
    151       8.1680      0.00000
    152       8.1948      0.00000
    153       8.2207      0.00000
    154       8.2522      0.00000
    155       8.4275      0.00000
    156       8.4426      0.00000
    157       8.4697      0.00000
    158       8.5058      0.00000
    159       8.5530      0.00000
    160       8.5659      0.00000
    161       8.6406      0.00000

 k-point     3 :      -0.2500    0.2500    0.2500
  band No.  band energies     occupation 
      1      -5.9759      2.00000
      2      -5.4819      2.00000
      3      -5.4388      2.00000
      4      -5.3854      2.00000
      5      -4.9731      2.00000
      6      -4.9248      2.00000
      7      -4.8800      2.00000
      8      -4.5008      2.00000
      9      -4.4360      2.00000
     10      -4.3937      2.00000
     11      -4.3145      2.00000
     12      -4.0607      2.00000
     13      -3.9988      2.00000
     14      -3.9646      2.00000
     15      -3.9357      2.00000
     16      -3.9242      2.00000
     17      -3.8887      2.00000
     18      -3.7729      2.00000
     19      -3.7686      2.00000
     20      -3.7070      2.00000
     21      -3.3243      2.00000
     22      -3.2530      2.00000
     23      -3.2043      2.00000
     24      -2.9326      2.00000
     25      -2.9069      2.00000
     26      -2.8405      2.00000
     27      -2.7727      2.00000
     28      -2.7333      2.00000
     29      -2.6947      2.00000
     30      -2.6795      2.00000
     31      -2.6517      2.00000
     32      -2.6244      2.00000
     33      -1.2639      2.00000
     34      -1.2462      2.00000
     35      -1.1943      2.00000
     36      -1.1744      2.00000
     37      -1.1459      2.00000
     38      -1.1312      2.00000
     39      -1.0929      2.00000
     40      -1.0327      2.00000
     41      -0.9872      2.00000
     42      -0.9642      2.00000
     43      -0.9231      2.00000
     44      -0.9153      2.00000
     45      -0.8768      2.00000
     46      -0.8237      2.00000
     47      -0.7720      2.00000
     48      -0.1848      2.00000
     49      -0.1564      2.00000
     50      -0.1023      2.00000
     51      -0.0646      2.00000
     52      -0.0276      2.00000
     53       0.0028      2.00000
     54       0.0295      2.00000
     55       0.7956      2.00000
     56       0.8196      2.00000
     57       0.8711      2.00000
     58       1.1277      2.00000
     59       1.1504      2.00000
     60       1.1696      2.00000
     61       1.6498      2.00000
     62       1.6908      2.00000
     63       1.7074      2.00000
     64       1.7281      2.00000
     65       1.7444      2.00000
     66       1.7745      2.00000
     67       1.7877      2.00000
     68       1.8146      2.00000
     69       1.8359      2.00000
     70       2.3046      2.00000
     71       2.3115      2.00000
     72       2.3456      2.00000
     73       2.3747      2.00000
     74       2.4058      2.00000
     75       2.4373      2.00000
     76       2.4662      2.00000
     77       2.4904      2.00000
     78       2.5167      2.00000
     79       2.5283      2.00000
     80       2.5922      2.00000
     81       2.6127      2.00000
     82       2.7637      2.00000
     83       2.7921      2.00000
     84       2.8253      2.00000
     85       2.8474      2.00000
     86       2.8666      2.00000
     87       2.8929      2.00000
     88       3.0725      2.00000
     89       3.0809      2.00000
     90       3.0976      2.00000
     91       3.1105      2.00000
     92       3.1360      2.00000
     93       3.1433      2.00000
     94       3.4013      2.00000
     95       3.4267      2.00000
     96       3.4601      2.00000
     97       3.4841      2.00000
     98       3.5101      2.00000
     99       3.5539      2.00000
    100       3.5703      2.00000
    101       3.5895      2.00000
    102       3.6211      2.00000
    103       3.7642      2.00000
    104       3.8284      2.00000
    105       3.8375      2.00000
    106       3.8493      2.00000
    107       3.8852      2.00000
    108       3.9044      2.00000
    109       3.9176      2.00000
    110       3.9291      2.00000
    111       3.9694      2.00000
    112       4.1474      2.00000
    113       4.2270      2.00000
    114       4.2392      2.00000
    115       4.2563      2.00000
    116       4.4465      2.00000
    117       4.4493      2.00000
    118       4.4961      2.00000
    119       4.5249      2.00000
    120       4.5622      2.00000
    121       4.5982      2.00000
    122       4.6928      2.00000
    123       4.7256      2.00000
    124       4.9855      2.00000
    125       5.0212      2.00000
    126       5.0975      2.00000
    127       5.5004      2.00000
    128       5.5275      2.00000
    129       6.6216      0.00000
    130       6.6470      0.00000
    131       6.6867      0.00000
    132       7.0734      0.00000
    133       7.1227      0.00000
    134       7.1673      0.00000
    135       7.3770      0.00000
    136       7.5449      0.00000
    137       7.5934      0.00000
    138       7.6298      0.00000
    139       7.6607      0.00000
    140       7.7130      0.00000
    141       7.7408      0.00000
    142       7.8355      0.00000
    143       7.8849      0.00000
    144       7.9002      0.00000
    145       7.9339      0.00000
    146       7.9508      0.00000
    147       7.9984      0.00000
    148       8.0721      0.00000
    149       8.1116      0.00000
    150       8.1307      0.00000
    151       8.1679      0.00000
    152       8.1960      0.00000
    153       8.2119      0.00000
    154       8.2449      0.00000
    155       8.4188      0.00000
    156       8.4470      0.00000
    157       8.4605      0.00000
    158       8.5028      0.00000
    159       8.5454      0.00000
    160       8.5821      0.00000
    161       8.6031      0.00000

 k-point     4 :      -0.2500   -0.2500    0.2500
  band No.  band energies     occupation 
      1      -5.9754      2.00000
      2      -5.4729      2.00000
      3      -5.4510      2.00000
      4      -5.3864      2.00000
      5      -4.9669      2.00000
      6      -4.9327      2.00000
      7      -4.8746      2.00000
      8      -4.4796      2.00000
      9      -4.4245      2.00000
     10      -4.4018      2.00000
     11      -4.3334      2.00000
     12      -4.0752      2.00000
     13      -4.0003      2.00000
     14      -3.9621      2.00000
     15      -3.9532      2.00000
     16      -3.9221      2.00000
     17      -3.8790      2.00000
     18      -3.7811      2.00000
     19      -3.7489      2.00000
     20      -3.7154      2.00000
     21      -3.2847      2.00000
     22      -3.2665      2.00000
     23      -3.2112      2.00000
     24      -2.9383      2.00000
     25      -2.8909      2.00000
     26      -2.8533      2.00000
     27      -2.7775      2.00000
     28      -2.7487      2.00000
     29      -2.6955      2.00000
     30      -2.6709      2.00000
     31      -2.6592      2.00000
     32      -2.6115      2.00000
     33      -1.2697      2.00000
     34      -1.2350      2.00000
     35      -1.2023      2.00000
     36      -1.1595      2.00000
     37      -1.1378      2.00000
     38      -1.1254      2.00000
     39      -1.0861      2.00000
     40      -1.0490      2.00000
     41      -1.0137      2.00000
     42      -0.9615      2.00000
     43      -0.9215      2.00000
     44      -0.9074      2.00000
     45      -0.8763      2.00000
     46      -0.8430      2.00000
     47      -0.7638      2.00000
     48      -0.1575      2.00000
     49      -0.1289      2.00000
     50      -0.1000      2.00000
     51      -0.0745      2.00000
     52      -0.0439      2.00000
     53      -0.0181      2.00000
     54       0.0277      2.00000
     55       0.7949      2.00000
     56       0.8360      2.00000
     57       0.8629      2.00000
     58       1.1265      2.00000
     59       1.1462      2.00000
     60       1.1666      2.00000
     61       1.6612      2.00000
     62       1.6936      2.00000
     63       1.7090      2.00000
     64       1.7168      2.00000
     65       1.7434      2.00000
     66       1.7599      2.00000
     67       1.7883      2.00000
     68       1.8018      2.00000
     69       1.8335      2.00000
     70       2.3064      2.00000
     71       2.3254      2.00000
     72       2.3535      2.00000
     73       2.3933      2.00000
     74       2.4057      2.00000
     75       2.4312      2.00000
     76       2.4548      2.00000
     77       2.4947      2.00000
     78       2.5048      2.00000
     79       2.5516      2.00000
     80       2.5630      2.00000
     81       2.6027      2.00000
     82       2.7691      2.00000
     83       2.8164      2.00000
     84       2.8334      2.00000
     85       2.8502      2.00000
     86       2.8619      2.00000
     87       2.8879      2.00000
     88       3.0649      2.00000
     89       3.0831      2.00000
     90       3.1007      2.00000
     91       3.1177      2.00000
     92       3.1388      2.00000
     93       3.1475      2.00000
     94       3.4116      2.00000
     95       3.4388      2.00000
     96       3.4672      2.00000
     97       3.4789      2.00000
     98       3.5003      2.00000
     99       3.5395      2.00000
    100       3.5653      2.00000
    101       3.5856      2.00000
    102       3.6025      2.00000
    103       3.7819      2.00000
    104       3.8074      2.00000
    105       3.8537      2.00000
    106       3.8631      2.00000
    107       3.8769      2.00000
    108       3.8922      2.00000
    109       3.9190      2.00000
    110       3.9452      2.00000
    111       3.9750      2.00000
    112       4.1586      2.00000
    113       4.2133      2.00000
    114       4.2238      2.00000
    115       4.2785      2.00000
    116       4.4281      2.00000
    117       4.4716      2.00000
    118       4.4850      2.00000
    119       4.5162      2.00000
    120       4.5578      2.00000
    121       4.5993      2.00000
    122       4.7036      2.00000
    123       4.7230      2.00000
    124       5.0027      2.00000
    125       5.0247      2.00000
    126       5.0645      2.00000
    127       5.5011      2.00000
    128       5.5209      2.00000
    129       6.6285      0.00000
    130       6.6399      0.00000
    131       6.6864      0.00000
    132       7.0803      0.00000
    133       7.1119      0.00000
    134       7.1409      0.00000
    135       7.3740      0.00000
    136       7.5537      0.00000
    137       7.5761      0.00000
    138       7.5987      0.00000
    139       7.6750      0.00000
    140       7.7018      0.00000
    141       7.7413      0.00000
    142       7.8621      0.00000
    143       7.8841      0.00000
    144       7.9061      0.00000
    145       7.9256      0.00000
    146       7.9404      0.00000
    147       7.9934      0.00000
    148       8.0912      0.00000
    149       8.1102      0.00000
    150       8.1299      0.00000
    151       8.1573      0.00000
    152       8.1851      0.00000
    153       8.2147      0.00000
    154       8.2631      0.00000
    155       8.4275      0.00000
    156       8.4441      0.00000
    157       8.4630      0.00000
    158       8.5049      0.00000
    159       8.5407      0.00000
    160       8.5908      0.00000
    161       8.6091      0.00000


--------------------------------------------------------------------------------------------------------


 soft charge-density along one line, spin component           1
         0         1         2         3         4         5         6         7         8         9
 total charge-density along one line
 
 pseudopotential strength for first ion, spin component:           1
 18.423  25.704   0.001  -0.002  -0.000   0.002  -0.003  -0.000
 25.704  35.866   0.002  -0.002  -0.000   0.003  -0.004  -0.000
  0.001   0.002   4.180  -0.000   0.000   7.789  -0.000   0.000
 -0.002  -0.002  -0.000   4.180   0.000  -0.000   7.789   0.000
 -0.000  -0.000   0.000   0.000   4.180   0.000   0.000   7.789
  0.002   0.003   7.789  -0.000   0.000  14.525  -0.001   0.000
 -0.003  -0.004  -0.000   7.789   0.000  -0.001  14.525   0.000
 -0.000  -0.000   0.000   0.000   7.789   0.000   0.000  14.525
 total augmentation occupancy for first ion, spin component:           1
  6.025  -2.330   0.082   0.146  -0.173  -0.028  -0.053   0.062
 -2.330   1.012  -0.040  -0.089   0.083   0.013   0.028  -0.029
  0.082  -0.040   3.296  -0.127  -0.015  -0.796   0.038   0.007
  0.146  -0.089  -0.127   3.311   0.098   0.038  -0.802  -0.032
 -0.173   0.083  -0.015   0.098   3.381   0.007  -0.032  -0.827
 -0.028   0.013  -0.796   0.038   0.007   0.200  -0.011  -0.002
 -0.053   0.028   0.038  -0.802  -0.032  -0.011   0.202   0.010
  0.062  -0.029   0.007  -0.032  -0.827  -0.002   0.010   0.210


------------------------ aborting loop because EDIFF is reached ----------------------------------------


    CHARGE:  cpu time      3.5475: real time      3.5570
    FORLOC:  cpu time      0.0097: real time      0.0098
    FORNL :  cpu time     11.6498: real time     11.6801
    STRESS:  cpu time     30.1607: real time     30.2379
    FORCOR:  cpu time      0.0756: real time      0.0758
    FORHAR:  cpu time      0.0306: real time      0.0307
    MIXING:  cpu time      0.0129: real time      0.0130
    OFIELD:  cpu time      0.0000: real time      0.0000

  FORCE on cell =-STRESS in cart. coord.  units (eV):
  Direction    XX          YY          ZZ          XY          YZ          ZX
  --------------------------------------------------------------------------------------
  Alpha Z   106.89264   106.89264   106.89264
  Ewald   -2429.79838 -2433.26855 -2429.66286    -5.53846    -7.51345     1.45971
  Hartree   160.65509   160.15894   161.66051    -0.54506    -0.88865     0.91330
  E(xc)    -810.96276  -810.91331  -810.95723     0.02058     0.06504    -0.02713
  Local    -944.66980  -940.74707  -946.16513     5.59793     7.84182    -2.31164
  n-local  2492.56121  2491.52743  2492.38382    -0.85190    -1.49911     0.29639
  augment  -372.15719  -372.10412  -372.15394    -0.00218     0.07579    -0.04406
  Kinetic  1807.80758  1808.26966  1807.89414     1.32584     0.54090     0.79058
  Fock        0.00000     0.00000     0.00000     0.00000     0.00000     0.00000
  -------------------------------------------------------------------------------------
  Total      10.32839     9.81561     9.89194     0.00675    -1.37766     1.07715
  in kB      12.82852    12.19162    12.28642     0.00838    -1.71114     1.33789
  external pressure =       12.44 kB  Pullay stress =        0.00 kB


 VOLUME and BASIS-vectors are now :
 -----------------------------------------------------------------------------
  energy-cutoff  :      250.00
  volume of cell :     1289.93
      direct lattice vectors                 reciprocal lattice vectors
    10.885014760  0.000000000  0.000000000     0.091869421  0.000072654  0.000096649
    -0.008609010 10.885980730  0.000000000     0.000000000  0.091861269 -0.000058932
    -0.011457910  0.006983720 10.886043760     0.000000000  0.000000000  0.091860737

  length of vectors
    10.885014760 10.885984134 10.886052030     0.091869500  0.091861288  0.091860737


 FORCES acting on ions
    electron-ion (+dipol)            ewald-force                    non-local-force                 convergence-correction
 -----------------------------------------------------------------------------------------------
   -.407E+01 0.362E+01 0.568E+01   0.350E+01 -.363E+01 -.504E+01   0.127E+01 -.515E+00 -.668E+00   0.114E-02 0.463E-03 -.773E-03
   -.289E+01 0.483E+01 -.275E+01   0.256E+01 -.464E+01 0.235E+01   0.328E+00 -.902E+00 0.576E+00   0.100E-02 0.877E-03 0.126E-03
   -.322E+01 0.207E+01 0.277E+01   0.293E+01 -.198E+01 -.259E+01   0.578E+00 -.549E+00 -.550E-01   0.142E-02 0.269E-03 0.783E-04
   0.698E+00 0.452E+01 0.210E+01   -.782E+00 -.447E+01 -.184E+01   -.109E+00 -.116E+01 -.716E+00   0.708E-03 0.243E-02 0.869E-03
   -.763E+00 0.196E+01 0.428E+01   0.795E+00 -.211E+01 -.405E+01   -.232E+00 0.723E+00 -.436E+00   0.244E-02 0.170E-02 -.102E-03
   -.309E+01 0.280E+01 0.221E+01   0.290E+01 -.264E+01 -.190E+01   0.264E+00 0.259E+00 -.388E+00   -.953E-03 -.102E-03 0.504E-03
   -.215E+01 0.124E+01 0.218E+01   0.217E+01 -.151E+01 -.187E+01   0.357E+00 0.300E+00 -.222E+00   -.258E-03 0.142E-02 -.117E-02
   -.151E+00 -.596E+00 -.337E+01   0.211E-02 0.656E+00 0.318E+01   -.113E+00 0.582E+00 0.173E+01   0.117E-02 0.919E-03 -.333E-03
   0.262E+01 0.567E+00 -.451E+01   -.288E+01 -.608E+00 0.425E+01   -.782E-01 0.692E+00 0.102E+01   -.747E-04 0.110E-02 -.620E-04
   0.111E+01 -.347E-01 -.751E+00   -.975E+00 -.212E+00 0.595E+00   0.261E+00 0.934E-01 -.772E+00   0.340E-03 0.175E-02 -.271E-03
   0.372E+01 0.508E+01 -.199E+01   -.353E+01 -.450E+01 0.204E+01   -.233E+00 -.698E+00 0.267E+00   0.396E-03 0.133E-02 -.127E-04
   0.845E+01 0.339E+01 -.166E+01   -.777E+01 -.313E+01 0.141E+01   -.139E+01 -.455E+00 0.127E+00   0.478E-03 0.817E-03 -.271E-03
   0.794E+01 0.283E+01 0.433E+00   -.765E+01 -.290E+01 -.970E-01   -.909E+00 -.808E+00 -.777E+00   0.496E-03 0.182E-02 0.605E-03
   -.698E+00 -.277E+01 0.162E+01   0.609E+00 0.254E+01 -.123E+01   -.537E+00 0.653E+00 -.258E+00   -.687E-03 0.116E-02 -.238E-04
   -.256E+01 0.366E+01 -.535E+01   0.205E+01 -.365E+01 0.503E+01   0.672E+00 -.345E+00 0.133E+01   -.115E-02 0.192E-02 0.238E-03
   0.701E+00 -.313E+01 0.221E+01   -.976E+00 0.270E+01 -.175E+01   0.284E+00 0.107E+01 -.590E+00   0.147E-02 -.221E-03 -.896E-03
   -.203E+00 -.334E+01 -.100E+00   0.678E-02 0.298E+01 -.233E+00   0.246E+00 0.351E+00 0.782E+00   -.324E-03 -.519E-03 0.255E-03
   0.344E+01 -.467E+01 0.295E+01   -.309E+01 0.450E+01 -.248E+01   -.302E+00 0.694E+00 -.828E+00   0.127E-02 -.789E-03 0.176E-03
   -.265E+01 -.379E+01 -.128E+01   0.234E+01 0.332E+01 0.768E+00   0.948E+00 0.816E+00 0.172E+00   0.218E-03 -.101E-02 0.727E-03
   0.567E+00 -.474E+01 0.992E+00   -.571E+00 0.419E+01 -.741E+00   -.314E+00 0.137E+01 -.387E+00   0.108E-02 -.932E-03 0.313E-03
   0.355E+01 -.947E+00 0.341E+01   -.321E+01 0.129E+01 -.327E+01   -.657E+00 -.620E+00 -.559E+00   0.110E-02 -.130E-02 0.125E-02
   -.950E+00 -.293E+01 -.340E+01   0.842E+00 0.288E+01 0.269E+01   0.325E+00 -.844E-01 0.861E+00   -.918E-03 -.312E-03 0.795E-03
   0.431E+01 -.157E+01 0.200E+01   -.350E+01 0.166E+01 -.171E+01   -.197E+01 -.495E+00 -.313E+00   -.110E-02 -.179E-02 0.278E-04
   0.596E+00 0.139E+01 -.597E+00   -.551E+00 -.125E+01 0.463E+00   0.146E+00 -.557E+00 -.436E+00   0.148E-02 -.106E-02 -.980E-03
   -.104E+01 -.838E+00 -.195E+01   0.719E+00 0.105E+01 0.188E+01   0.668E+00 0.169E+00 0.179E+00   0.134E-02 -.975E-03 -.740E-03
   0.143E+01 0.652E+00 -.205E-01   -.145E+01 -.252E+00 0.222E+00   -.375E+00 -.689E-01 0.137E+00   0.257E-03 -.157E-02 -.474E-03
   0.432E+01 0.286E+00 -.106E+01   -.405E+01 0.171E+00 0.785E+00   -.180E+00 -.936E+00 0.384E+00   0.127E-02 -.110E-02 -.750E-04
   0.786E+01 0.153E+01 -.199E+01   -.719E+01 -.102E+01 0.194E+01   -.171E+01 -.513E+00 0.604E+00   0.108E-03 -.117E-02 0.459E-03
   0.407E+01 -.128E+01 0.358E+01   -.408E+01 0.118E+01 -.301E+01   -.136E+00 -.260E+00 -.130E+01   0.153E-02 -.140E-02 -.713E-03
   0.907E-01 0.119E+01 -.263E+01   -.541E-02 -.112E+01 0.210E+01   -.425E+00 -.699E+00 0.714E+00   -.471E-03 -.751E-03 0.144E-03
   0.207E+01 -.547E+01 0.333E+01   -.200E+01 0.492E+01 -.295E+01   -.665E+00 0.168E+01 -.104E+01   -.606E-03 -.102E-02 -.484E-03
   0.784E+00 -.748E+00 -.403E+01   -.121E+01 0.269E+00 0.340E+01   0.351E+00 0.610E+00 0.112E+01   0.863E-03 -.453E-03 0.118E-03
   0.174E+01 -.475E+01 -.372E+01   -.150E+01 0.404E+01 0.363E+01   -.241E+00 0.131E+01 0.222E+00   -.197E-02 0.622E-03 0.414E-03
   0.856E+00 -.249E+01 0.848E+00   -.109E+01 0.151E+01 -.655E+00   0.325E+00 0.109E+01 -.168E+00   0.458E-03 0.235E-02 0.846E-04
   0.492E+01 -.129E+01 -.163E+01   -.464E+01 0.987E+00 0.156E+01   -.131E+01 0.988E+00 0.680E+00   -.777E-03 0.113E-02 0.141E-02
   0.951E-01 0.803E+01 -.396E+00   0.171E+00 -.753E+01 0.302E+00   -.437E+00 -.148E+01 -.663E+00   -.130E-02 0.105E-02 0.365E-03
   0.674E+01 0.586E+01 -.440E+01   -.617E+01 -.532E+01 0.386E+01   -.101E+01 -.968E+00 0.780E+00   -.842E-03 0.154E-02 0.165E-02
   0.847E+00 0.154E+01 0.372E+01   -.702E+00 -.974E+00 -.344E+01   0.170E+00 -.277E+00 -.112E+01   -.461E-03 0.122E-02 0.652E-03
   0.263E+01 0.353E+01 -.288E+01   -.235E+01 -.357E+01 0.282E+01   -.152E+00 -.266E+00 -.396E-01   -.248E-03 0.114E-02 0.489E-03
   -.192E+01 -.414E+00 -.448E+01   0.191E+01 0.169E+00 0.398E+01   0.680E-01 0.761E+00 0.143E+01   -.634E-03 0.325E-03 -.678E-03
   -.747E+01 -.100E+01 0.579E+01   0.680E+01 0.109E+01 -.534E+01   0.179E+01 0.716E+00 -.743E+00   -.291E-03 0.394E-03 -.906E-03
   -.347E+00 0.241E+01 -.103E+01   0.275E+00 -.233E+01 0.119E+01   -.249E+00 0.756E-01 -.459E-01   -.936E-05 0.908E-03 -.107E-03
   -.200E+01 0.398E+01 0.272E+01   0.180E+01 -.367E+01 -.249E+01   0.590E+00 -.674E+00 -.262E-01   -.294E-04 0.529E-03 0.761E-06
   -.367E+01 0.293E+01 -.671E+00   0.367E+01 -.287E+01 0.578E+00   0.617E+00 -.411E+00 0.177E+00   -.825E-03 0.172E-02 0.348E-03
   -.143E+01 0.233E+01 0.523E+01   0.148E+01 -.233E+01 -.488E+01   -.614E+00 -.395E+00 -.745E+00   -.570E-03 0.184E-02 -.410E-03
   -.224E+01 -.223E+00 -.748E+00   0.192E+01 0.333E+00 0.731E+00   0.770E+00 -.751E+00 -.109E+00   0.467E-03 -.620E-03 0.575E-03
   -.158E+00 0.209E+01 0.493E+01   -.104E+00 -.223E+01 -.458E+01   0.772E+00 0.693E+00 -.115E+01   0.686E-03 0.217E-02 -.968E-03
   -.216E+01 0.106E+01 -.516E+00   0.191E+01 -.811E+00 0.371E+00   0.875E-01 0.173E+00 0.313E+00   -.352E-03 0.675E-03 -.558E-03
   -.430E+01 0.278E+01 -.186E+01   0.400E+01 -.246E+01 0.146E+01   0.120E+01 -.130E+01 0.123E+01   -.729E-03 -.819E-03 0.674E-04
   -.284E+01 -.510E+01 0.264E+01   0.272E+01 0.452E+01 -.240E+01   -.327E+00 0.547E+00 -.586E-01   -.506E-03 -.151E-02 -.210E-03
   0.458E-01 -.490E+01 -.551E+00   0.925E-01 0.442E+01 0.466E+00   -.389E+00 0.760E+00 0.422E+00   0.150E-03 -.792E-03 -.276E-03
   -.203E+01 -.107E+02 0.227E+01   0.222E+01 0.100E+02 -.217E+01   -.109E+00 0.248E+01 -.483E-01   -.716E-03 -.596E-03 0.604E-03
   -.400E+01 -.413E+00 0.484E+01   0.382E+01 0.907E+00 -.449E+01   0.699E+00 -.703E+00 -.941E+00   0.892E-04 -.155E-02 0.297E-03
   -.265E+01 0.701E+01 0.125E+00   0.257E+01 -.608E+01 -.376E+00   0.460E+00 -.186E+01 -.160E+00   0.527E-03 -.142E-02 0.715E-03
   0.231E+01 -.229E+01 -.371E+01   -.177E+01 0.230E+01 0.359E+01   -.786E+00 -.334E+00 0.363E+00   -.256E-03 -.112E-02 -.769E-03
   0.164E+01 -.565E+01 0.206E+01   -.112E+01 0.514E+01 -.186E+01   -.990E+00 0.264E+00 -.375E+00   -.657E-03 -.353E-03 -.271E-04
   -.395E+01 0.488E+01 -.114E+01   0.390E+01 -.404E+01 0.105E+01   0.756E+00 -.173E+01 -.248E+00   -.184E-02 -.112E-02 -.162E-03
   -.436E+01 -.268E+01 -.148E+01   0.401E+01 0.301E+01 0.155E+01   0.972E+00 0.191E+00 -.537E-01   0.462E-05 -.590E-03 -.105E-02
   0.193E+01 -.493E+01 0.183E+01   -.143E+01 0.457E+01 -.163E+01   -.105E+01 0.680E+00 -.405E+00   -.248E-03 -.694E-03 0.801E-03
   0.284E+00 0.383E+01 0.203E+01   0.170E+00 -.301E+01 -.151E+01   -.690E+00 -.194E+01 -.127E+01   -.118E-02 -.167E-02 -.248E-04
   -.345E+01 -.349E+01 -.749E+01   0.342E+01 0.336E+01 0.658E+01   0.305E-01 0.193E+00 0.207E+01   -.973E-03 -.127E-02 0.764E-03
   0.115E+01 -.553E+00 -.350E+01   -.101E+01 0.213E+00 0.311E+01   -.146E+00 0.102E+00 0.259E+00   0.204E-03 -.365E-03 -.277E-03
   -.302E+01 -.619E+01 0.316E+01   0.276E+01 0.579E+01 -.294E+01   0.929E+00 0.134E+01 -.856E+00   -.970E-04 -.158E-02 -.392E-03
   -.727E+01 -.710E-01 -.419E+01   0.633E+01 0.176E+00 0.359E+01   0.208E+01 0.339E+00 0.891E+00   -.171E-03 -.132E-02 -.290E-03
 -----------------------------------------------------------------------------------------------
   -.186E+00 -.274E-01 0.854E-01   0.218E-12 -.178E-14 -.533E-13   0.185E+00 0.143E-01 -.112E+00   0.193E-02 0.171E-02 0.144E-02
 
 
 POSITION                                       TOTAL-FORCE (eV/Angst)
 -----------------------------------------------------------------------------------
     10.85778      0.05847     10.87940         0.695702     -0.528829     -0.026979
      2.80609      2.79120      0.01358        -0.001219     -0.707996      0.170795
      2.69791      0.08951      2.76219         0.295864     -0.466707      0.123115
      0.07851      2.78958      2.74693        -0.192837     -1.102540     -0.459647
      1.39604      1.37453      1.33622        -0.197267      0.572787     -0.201896
      4.16558      4.09678      1.40360         0.071839      0.417793     -0.071568
      3.98209      1.45772      4.18477         0.374146      0.037338      0.085484
      1.47352      4.05035      3.99745        -0.260470      0.642750      1.546129
      0.07565      0.02689      5.49215        -0.335208      0.652125      0.772586
      2.67808      2.83901      5.62460         0.396060     -0.151200     -0.928345
      2.71186      0.06500      8.13616        -0.050472     -0.113207      0.318125
     10.83305      2.77493      8.33528        -0.708198     -0.202449     -0.128266
      1.33959      1.52075      6.95144        -0.614973     -0.874300     -0.439870
      4.14981      4.18606      6.82502        -0.627096      0.421538      0.136984
      4.07915      1.43783      9.42713         0.163376     -0.330619      1.009334
      1.38743      4.08678      9.59833         0.010701      0.636451     -0.138189
      0.03563      5.41436      0.08673         0.049288     -0.005439      0.448621
      2.72795      8.12862      0.08061         0.051149      0.531445     -0.359842
      2.81553      5.45489      2.79352         0.633717      0.345407     -0.339934
      0.13502      8.15050      2.83760        -0.317502      0.828909     -0.134774
      1.42869      6.79186      1.47537        -0.320333     -0.280712     -0.414549
      4.05798      9.54346      1.42572         0.216574     -0.131142      0.157413
      4.26396      6.85851      4.08683        -1.162633     -0.409491     -0.017439
      1.44995      9.58202      4.21652         0.193575     -0.414291     -0.570128
      0.06692      5.42029      5.41102         0.349291      0.380762      0.112967
      2.89759      8.17635      5.44840        -0.391879      0.330410      0.338754
      2.72122      5.50321      8.20021         0.091159     -0.479322      0.109639
      0.08586      8.15707      8.14463        -1.043857     -0.002554      0.556065
      1.45066      6.85736      6.79941        -0.139967     -0.359181     -0.726455
      4.13181      9.63043      6.84441        -0.340659     -0.626386      0.183134
      4.09236      6.78296      9.59207        -0.594680      1.128462     -0.659166
      1.39146      9.53473      9.51256        -0.072070      0.130344      0.492333
      5.40237      0.03713      0.04764        -0.012495      0.608123      0.137886
      8.11112      2.75825      0.09692         0.087917      0.114981      0.024952
      8.32976      0.03862      2.70575        -1.026739      0.686699      0.610663
      5.45835      2.83748      2.90834        -0.172441     -0.976157     -0.756400
      6.80027      1.42299      1.46410        -0.437460     -0.421716      0.239219
      9.52104      4.05922      1.47080         0.314946      0.295618     -0.838860
      9.63137      1.42463      4.12426         0.126177     -0.306467     -0.097601
      6.89429      4.16162      4.09553         0.057297      0.516720      0.918602
      5.39569      0.01518      5.42633         1.116521      0.805399     -0.290778
      8.28405      2.79465      5.46033        -0.321217      0.156853      0.111206
      8.04596      0.05581      8.18211         0.381056     -0.361834      0.200552
      5.43459      2.80222      8.12672         0.616582     -0.354044      0.084541
      6.84047      1.47233      6.77281        -0.570907     -0.388825     -0.396501
      9.55936      4.20072      6.87295         0.450056     -0.642244     -0.124721
      9.36544      1.33353      9.65995         0.510839      0.560650     -0.803277
      6.81579      4.07854      9.51950        -0.162727      0.426858      0.168348
      5.44010      5.50610     10.84433         0.902618     -0.979639      0.830047
      8.27577      8.24371      0.02972        -0.443805     -0.035947      0.179930
      8.22999      5.50236      2.70977        -0.250412      0.284935      0.337457
      5.54068      8.09367      2.68560         0.082942      1.808378      0.059475
      6.85601      6.82555      1.32853         0.519221     -0.210563     -0.591853
      9.65243      9.57718      1.45147         0.378266     -0.925290     -0.409406
      9.58027      6.85647      4.11339        -0.247324     -0.323474      0.246464
      6.88348      9.59564      4.06346        -0.467915     -0.251754     -0.176238
      5.48199      5.56208      5.50819         0.709622     -0.888965     -0.346302
      8.15978      8.19889      5.45748         0.616946      0.518710      0.014631
      8.17889      5.48688      8.21074        -0.544814      0.321565     -0.202451
      5.41959      8.28710      8.28168        -0.236609     -1.117657     -0.754758
      6.80707      6.91252      6.81735         0.004413      0.060399      1.161946
      9.52402      9.58831      6.87352        -0.008316     -0.238297     -0.135047
      9.53244      6.74170      9.62836         0.670369      0.944104     -0.636390
      6.72322      9.55769      9.61562         1.136273      0.442728      0.290236
 -----------------------------------------------------------------------------------
    total drift:                                0.001030     -0.011444     -0.025095


--------------------------------------------------------------------------------------------------------



  FREE ENERGIE OF THE ION-ELECTRON SYSTEM (eV)
  ---------------------------------------------------
  free  energy   TOTEN  =      -344.68913545 eV

  energy  without entropy=     -344.68913545  energy(sigma->0) =     -344.68913545
 


--------------------------------------------------------------------------------------------------------


    POTLOK:  cpu time      0.5165: real time      0.5180


--------------------------------------------------------------------------------------------------------


 writing wavefunctions
     LOOP+:  cpu time    234.3714: real time    235.2439
    4ORBIT:  cpu time      0.0000: real time      0.0000

 total amount of memory used by VASP MPI-rank0    37835. kBytes
=======================================================================

   base      :      30000. kBytes
   nonlr-proj:       1195. kBytes
   fftplans  :        841. kBytes
   grid      :       1174. kBytes
   one-center:          9. kBytes
   wavefun   :       4616. kBytes
 
  
  
 General timing and accounting informations for this job:
 ========================================================
  
                  Total CPU time used (sec):      273.663
                            User time (sec):      273.466
                          System time (sec):        0.197
                         Elapsed time (sec):      275.439
  
                   Maximum memory used (kb):      213124.
                   Average memory used (kb):          N/A
  
                          Minor page faults:        19270
                          Major page faults:         8197
                 Voluntary context switches:         4621
