 vasp.6.4.2 20Jul23 (build Jun 27 2024 19:57:08) complex                        
  
 executed on                 T2A5 date 2026.01.13  23:57:25
 running   28 mpi-ranks, with    1 threads/rank, on    1 nodes
 distrk:  each k-point on   28 cores,    1 groups
 distr:  one band on NCORE=  28 cores,    1 groups


--------------------------------------------------------------------------------------------------------


 INCAR:
   ISTART = 1
   ICHARG = 1
   LWAVE = .T.
   LCHARG = .T.
   ENCUT = 250
   PREC = Normal
   ADDGRID = .F.
   EDIFF = 1E-4
   LREAL = Auto
   ALGO = Fast
   NSW = 0
   IBRION = -1
   ISMEAR = 0
   SIGMA = 0.1
   NPAR = 1
   KPAR = 1
   SYMPREC = 1E-4

 POTCAR:    PAW_PBE Si 05Jan2001                  
 POTCAR:    PAW_PBE Si 05Jan2001                  
   SHA256 =  79d9987ad8750f624c4d6acb2a16d13abf6a777132adc04dc6c8399be72b42bb Si/POTCAR             
   COPYR  = (c) Copyright 05Jan2001 Georg Kresse                                                    
   COPYR  = This file is part of the software VASP. Any use, copying, and all other rights are regul
   COPYR  = If you do not have a valid VASP license, you may not use, copy or distribute this file. 
   VRHFIN =Si: s2p2                                                                                 
   LEXCH  = PE                                                                                      
   EATOM  =   103.0669 eV,    7.5752 Ry                                                             
                                                                                                    
   TITEL  = PAW_PBE Si 05Jan2001                                                                    
   LULTRA =        F    use ultrasoft PP ?                                                          
   IUNSCR =        1    unscreen: 0-lin 1-nonlin 2-no                                               
   RPACOR =    1.500    partial core radius                                                         
   POMASS =   28.085; ZVAL   =    4.000    mass and valenz                                          
   RCORE  =    1.900    outmost cutoff radius                                                       
   RWIGS  =    2.480; RWIGS  =    1.312    wigner-seitz radius (au A)                               
   ENMAX  =  245.345; ENMIN  =  184.009 eV                                                          
   ICORE  =        2    local potential                                                             
   LCOR   =        T    correct aug charges                                                         
   LPAW   =        T    paw PP                                                                      
   EAUG   =  322.069                                                                                
   DEXC   =    0.000                                                                                
   RMAX   =    1.950    core radius for proj-oper                                                   
   RAUG   =    1.300    factor for augmentation sphere                                              
   RDEP   =    1.993    radius for radial grids                                                     
   RDEPT  =    1.837    core radius for aug-charge                                                  
                                                                                                    
   Atomic configuration                                                                             
    6 entries                                                                                       
     n  l   j            E        occ.                                                              
     1  0  0.50     -1785.8828   2.0000                                                             
     2  0  0.50      -139.4969   2.0000                                                             
     2  1  1.50       -95.5546   6.0000                                                             
     3  0  0.50       -10.8127   2.0000                                                             
     3  1  0.50        -4.0811   2.0000                                                             
     3  2  1.50        -4.0817   0.0000                                                             
   Description                                                                                      
     l       E           TYP  RCUT    TYP  RCUT                                                     
     0    -10.8127223     23  1.900                                                                 
     0     -7.6451159     23  1.900                                                                 
     1     -4.0811372     23  1.900                                                                 
     1      2.4879257     23  1.900                                                                 
     2     -4.0817478      7  1.900                                                                 
  local pseudopotential read in
  partial core-charges read in
  partial kinetic energy density read in
  atomic valenz-charges read in
  non local Contribution for L=           0  read in
    real space projection operators read in
  non local Contribution for L=           0  read in
    real space projection operators read in
  non local Contribution for L=           1  read in
    real space projection operators read in
  non local Contribution for L=           1  read in
    real space projection operators read in
    PAW grid and wavefunctions read in
 
   number of l-projection  operators is LMAX  =           4
   number of lm-projection operators is LMMAX =           8
 
 Optimization of the real space projectors (new method)

 maximal supplied QI-value         = 19.84
 optimisation between [QCUT,QGAM] = [  7.94, 16.07] = [ 17.64, 72.34] Ry 
 Optimized for a Real-space Cutoff    1.55 Angstroem

   l    n(q)    QCUT    max X(q) W(low)/X(q) W(high)/X(q)  e(spline) 
   0      7     7.937   159.560    0.97E-04    0.31E-03    0.13E-06
   0      7     7.937   115.863    0.95E-04    0.31E-03    0.13E-06
   1      7     7.937    88.339    0.40E-03    0.66E-03    0.12E-06
   1      7     7.937    48.592    0.39E-03    0.64E-03    0.12E-06
  PAW_PBE Si 05Jan2001                  :
 energy of atom  1       EATOM= -103.0669
 kinetic energy error for atom=    0.0052 (will be added to EATOM!!)
 
 
 POSCAR: Si
  positions in cartesian coordinates
  No initial velocities read in
 exchange correlation table for  LEXCH =        8
   RHO(1)=    0.500       N(1)  =     2000
   RHO(2)=  100.500       N(2)  =     4000
 


--------------------------------------------------------------------------------------------------------


 ion  position               nearest neighbor table
   1  0.006  0.006  0.002-  32 2.32   5 2.37  54 2.38  47 2.40
   2  0.260  0.251  0.004-  15 2.31   5 2.33   6 2.33  16 2.37
   3  0.259  0.998  0.254-  24 2.32  22 2.34   7 2.37   5 2.43
   4  0.000  0.252  0.246-   5 2.33  39 2.34  38 2.39   8 2.43
   5  0.133  0.132  0.128-   2 2.33   4 2.33   1 2.37   3 2.43
   6  0.374  0.380  0.131-  19 2.28  49 2.31   2 2.33  36 2.33
   7  0.376  0.130  0.381-  10 2.33  41 2.33  36 2.34   3 2.37
   8  0.130  0.378  0.377-  25 2.28  10 2.32  19 2.36   4 2.43
   9  0.008  0.009  0.508-  13 2.27  39 2.34  62 2.38  24 2.39
  10  0.254  0.257  0.502-   8 2.32   7 2.33  14 2.37  13 2.41
  11  0.254  0.007  0.756-  30 2.38  15 2.38  13 2.39  32 2.40
  12  0.001  0.254  0.759-  47 2.27  46 2.30  13 2.37  16 2.40
  13  0.125  0.131  0.630-   9 2.27  12 2.37  11 2.39  10 2.41
  14  0.375  0.385  0.630-  27 2.30  57 2.34  44 2.36  10 2.37
  15  0.384  0.135  0.878-   2 2.31  33 2.31  44 2.35  11 2.38
  16  0.135  0.381  0.881-  27 2.34   2 2.37  17 2.37  12 2.40
  17  0.007  0.502  0.011-  38 2.32  21 2.32  16 2.37  63 2.41
  18  0.251  0.751  0.005-  31 2.32  32 2.33  22 2.35  21 2.36
  19  0.259  0.503  0.255-   6 2.28  23 2.29  21 2.32   8 2.36
  20  0.007  0.760  0.258-  54 2.33  24 2.34  21 2.41  55 2.44
  21  0.131  0.624  0.134-  17 2.32  19 2.32  18 2.36  20 2.41
  22  0.380  0.871  0.130-  52 2.31   3 2.34  18 2.35  33 2.40
  23  0.379  0.625  0.378-  19 2.29  26 2.38  57 2.39  52 2.47
  24  0.134  0.881  0.382-   3 2.32  26 2.33  20 2.34   9 2.39
  25  0.014  0.501  0.501-   8 2.28  29 2.29  46 2.37  55 2.37
  26  0.255  0.753  0.504-  24 2.33  29 2.33  30 2.34  23 2.38
  27  0.255  0.506  0.754-  14 2.30  16 2.34  31 2.34  29 2.36
  28  0.000  0.749  0.754-  63 2.23  62 2.35  29 2.40  32 2.41
  29  0.129  0.627  0.625-  25 2.29  26 2.33  27 2.36  28 2.40
  30  0.377  0.879  0.627-  26 2.34  60 2.36  11 2.38  41 2.43
  31  0.376  0.636  0.876-  60 2.30  18 2.32  27 2.34  49 2.50
  32  0.128  0.877  0.883-   1 2.32  18 2.33  11 2.40  28 2.41
  33  0.498  0.013  0.010-  15 2.31  37 2.36  64 2.39  22 2.40
  34  0.754  0.256  0.007-  38 2.33  48 2.36  47 2.37  37 2.39
  35  0.756  0.009  0.259-  56 2.33  39 2.34  37 2.34  54 2.47
  36  0.497  0.253  0.253-  37 2.32   6 2.33   7 2.34  40 2.43
  37  0.628  0.132  0.136-  36 2.32  35 2.34  33 2.36  34 2.39
  38  0.872  0.387  0.129-  17 2.32  34 2.33  51 2.38   4 2.39
  39  0.884  0.132  0.381-   9 2.34   4 2.34  35 2.34  42 2.39
  40  0.625  0.383  0.382-  57 2.24  51 2.34  42 2.34  36 2.43
  41  0.507  0.010  0.501-  45 2.28   7 2.33  56 2.33  30 2.43
  42  0.754  0.261  0.503-  40 2.34  46 2.36  39 2.39  45 2.40
  43  0.752  0.998  0.758-  64 2.35  47 2.38  45 2.45  62 2.45
  44  0.506  0.258  0.748-  45 2.33  48 2.35  15 2.35  14 2.36
  45  0.625  0.129  0.626-  41 2.28  44 2.33  42 2.40  43 2.45
  46  0.888  0.376  0.628-  12 2.30  42 2.36  25 2.37  59 2.39
  47  0.877  0.133  0.876-  12 2.27  34 2.37  43 2.38   1 2.40
  48  0.628  0.379  0.880-  49 2.34  44 2.35  34 2.36  59 2.36
  49  0.502  0.496  0.008-   6 2.31  48 2.34  53 2.35  31 2.50
  50  0.757  0.752  0.999-  53 2.31  64 2.34  54 2.36  63 2.38
  51  0.749  0.510  0.261-  53 2.32  55 2.33  40 2.34  38 2.38
  52  0.512  0.756  0.250-  56 2.30  22 2.31  53 2.44  23 2.47
  53  0.637  0.624  0.119-  50 2.31  51 2.32  49 2.35  52 2.44
  54  0.883  0.875  0.126-  20 2.33  50 2.36   1 2.38  35 2.47
  55  0.879  0.626  0.385-  51 2.33  58 2.37  25 2.37  20 2.44
  56  0.626  0.884  0.375-  52 2.30  35 2.33  41 2.33  58 2.38
  57  0.508  0.500  0.505-  40 2.24  14 2.34  61 2.39  23 2.39
  58  0.747  0.753  0.502-  62 2.34  55 2.37  56 2.38  61 2.42
  59  0.756  0.500  0.753-  61 2.30  48 2.36  63 2.37  46 2.39
  60  0.501  0.751  0.751-  61 2.29  31 2.30  30 2.36  64 2.45
  61  0.627  0.625  0.640-  60 2.29  59 2.30  57 2.39  58 2.42
  62  0.880  0.872  0.622-  58 2.34  28 2.35   9 2.38  43 2.45
  63  0.886  0.628  0.874-  28 2.23  59 2.37  50 2.38  17 2.41
  64  0.624  0.881  0.888-  50 2.34  43 2.35  33 2.39  60 2.45
 
  LATTYP: Found a base centered monoclinic cell.
 ALAT       =    26.6322417416
 B/A-ratio  =     0.5771086979
 C/A-ratio  =     0.7071444170
 COS(beta)  =    -0.9427159652
  
  Lattice vectors:
  
 A1 = (  10.8670066500,  10.8762803400,   0.0000000000)
 A2 = (   0.0048206800,  10.8685854100, -10.8738440400)
 A3 = ( -10.8770064500, -10.8685854100,  10.8738440400)


Analysis of symmetry for initial positions (statically):
=====================================================================
 Subroutine PRICEL returns:
 Original cell was already a primitive cell.
 

 Routine SETGRP: Setting up the symmetry group for a 
 base centered monoclinic supercell.


 Subroutine GETGRP returns: Found  1 space group operations
 (whereof  1 operations were pure point group operations)
 out of a pool of  4 trial point group operations.


The static configuration has the point symmetry C_1 .


Analysis of symmetry for dynamics (positions and initial velocities):
=====================================================================
 Subroutine PRICEL returns:
 Original cell was already a primitive cell.
 

 Routine SETGRP: Setting up the symmetry group for a 
 base centered monoclinic supercell.


 Subroutine GETGRP returns: Found  1 space group operations
 (whereof  1 operations were pure point group operations)
 out of a pool of  4 trial point group operations.


The dynamic configuration has the point symmetry C_1 .


 Subroutine INISYM returns: Found  1 space group operations
 (whereof  1 operations are pure point group operations),
 and found     1 'primitive' translations


----------------------------------------------------------------------------------------

                                     Primitive cell                                     

  volume of cell :    1285.8205

  direct lattice vectors                    reciprocal lattice vectors
    10.872185770  0.000000000  0.000000000     0.091977825  0.000043798  0.000084554
    -0.005179120 10.876280340  0.000000000     0.000000000  0.091943198 -0.000065064
    -0.009999800  0.007694930 10.873844040     0.000000000  0.000000000  0.091963798

  length of vectors
    10.872185770 10.876281573 10.873851361     0.091977874  0.091943221  0.091963798

  position of ions in fractional coordinates (direct lattice)
     0.006454574  0.006117112  0.002267813
     0.260131290  0.251081934  0.003752991
     0.258730951  0.998090285  0.253846218
     0.000220653  0.252341100  0.245683589
     0.132516592  0.132266816  0.127702895
     0.374336929  0.380113367  0.131355308
     0.376248154  0.129889011  0.381147319
     0.130389356  0.378198930  0.377417359
     0.007503310  0.008961517  0.508285490
     0.254396734  0.257201062  0.501982957
     0.254085724  0.006534751  0.756136941
     0.000655333  0.254097437  0.759322455
     0.124872917  0.131085453  0.629737505
     0.375478415  0.384877433  0.630110877
     0.384316860  0.134558379  0.877584168
     0.134783296  0.380976850  0.880875179
     0.007355819  0.501758494  0.010523989
     0.250543178  0.750595653  0.004892984
     0.258609894  0.503107262  0.254862042
     0.007009408  0.759673066  0.258169869
     0.130743106  0.624455458  0.134225135
     0.379896634  0.870519568  0.130274086
     0.378788273  0.624531109  0.378035413
     0.134303226  0.881199610  0.381646887
     0.014126363  0.500749262  0.501480270
     0.254543750  0.752745037  0.504283844
     0.254958736  0.506466100  0.753873840
     0.000188857  0.749366751  0.754390367
     0.129037191  0.626777507  0.624533229
     0.377286065  0.879454727  0.627183128
     0.375832511  0.636366287  0.876366865
     0.127555545  0.877317593  0.883343239
     0.498257341  0.012949593  0.009687046
     0.754230463  0.255996652  0.006609250
     0.756147046  0.008503519  0.258928704
     0.497443377  0.252923104  0.252777724
     0.628358237  0.131555699  0.136226276
     0.872198487  0.386976260  0.128845985
     0.883983076  0.131678757  0.381278134
     0.625285388  0.383057715  0.381601584
     0.507140735  0.010002371  0.500576841
     0.754026068  0.260644747  0.503383240
     0.751740978  0.997563925  0.758156668
     0.506397811  0.258214988  0.748342161
     0.625345639  0.129220129  0.625727391
     0.888405660  0.376175315  0.628086267
     0.877088480  0.132788520  0.876024228
     0.628192914  0.378814392  0.879875595
     0.501737718  0.496496229  0.008109228
     0.756688849  0.752053667  0.998909546
     0.748999763  0.510226404  0.260516448
     0.512315638  0.756335077  0.250310062
     0.637084641  0.623964930  0.119281405
     0.882730544  0.874798327  0.126343409
     0.879188886  0.626084361  0.384704104
     0.626044823  0.883743640  0.374673992
     0.508197485  0.499554174  0.505014788
     0.746755850  0.752692712  0.501985343
     0.756134072  0.500248916  0.752680651
     0.500829436  0.751328557  0.750735148
     0.627295066  0.625374866  0.640059349
     0.880055632  0.871672601  0.622039183
     0.885714829  0.627537010  0.873993739
     0.624245063  0.880770711  0.888072840

  ion indices of the primitive-cell ions
   primitive index   ion index
                 1           1
                 2           2
                 3           3
                 4           4
                 5           5
                 6           6
                 7           7
                 8           8
                 9           9
                10          10
                11          11
                12          12
                13          13
                14          14
                15          15
                16          16
                17          17
                18          18
                19          19
                20          20
                21          21
                22          22
                23          23
                24          24
                25          25
                26          26
                27          27
                28          28
                29          29
                30          30
                31          31
                32          32
                33          33
                34          34
                35          35
                36          36
                37          37
                38          38
                39          39
                40          40
                41          41
                42          42
                43          43
                44          44
                45          45
                46          46
                47          47
                48          48
                49          49
                50          50
                51          51
                52          52
                53          53
                54          54
                55          55
                56          56
                57          57
                58          58
                59          59
                60          60
                61          61
                62          62
                63          63
                64          64

----------------------------------------------------------------------------------------

 
 
 KPOINTS: K-Points                                

Automatic generation of k-mesh.
 Grid dimensions read from file:
 generate k-points for:    2    2    2

 Generating k-lattice:

  Cartesian coordinates                     Fractional coordinates (reciprocal lattice)
     0.045988912  0.000021899  0.000042277     0.500000000  0.000000000  0.000000000
     0.000000000  0.045971599 -0.000032532     0.000000000  0.500000000 -0.000000000
     0.000000000  0.000000000  0.045981899     0.000000000  0.000000000  0.500000000

  Length of vectors
     0.045988937  0.045971611  0.045981899

  Shift w.r.t. Gamma in fractional coordinates (k-lattice)
     0.500000000  0.500000000  0.500000000

 
 Subroutine IBZKPT returns following result:
 ===========================================
 
 Found      4 irreducible k-points:
 
 Following reciprocal coordinates:
            Coordinates               Weight
  0.250000  0.250000  0.250000      2.000000
  0.250000  0.250000 -0.250000      2.000000
 -0.250000  0.250000  0.250000      2.000000
  0.250000 -0.250000  0.250000      2.000000
 
 Following cartesian coordinates:
            Coordinates               Weight
  0.022994  0.022997  0.022996      2.000000
  0.022994  0.022997 -0.022986      2.000000
 -0.022994  0.022975  0.022954      2.000000
  0.022994 -0.022975  0.023028      2.000000
 


--------------------------------------------------------------------------------------------------------




 Dimension of arrays:
   k-points           NKPTS =      4   k-points in BZ     NKDIM =      4   number of bands    NBANDS=    161
   number of dos      NEDOS =    301   number of ions     NIONS =     64
   non local maximal  LDIM  =      4   non local SUM 2l+1 LMDIM =      8
   total plane-waves  NPLWV =  74088
   max r-space proj   IRMAX =    951   max aug-charges    IRDMAX=   2126
   dimension x,y,z NGX =    42 NGY =   42 NGZ =   42
   dimension x,y,z NGXF=    84 NGYF=   84 NGZF=   84
   support grid    NGXF=    84 NGYF=   84 NGZF=   84
   ions per type =              64
   NGX,Y,Z   is equivalent  to a cutoff of   6.42,  6.42,  6.42 a.u.
   NGXF,Y,Z  is equivalent  to a cutoff of  12.84, 12.84, 12.84 a.u.

 SYSTEM =  unknown system                          
 POSCAR =  Si                                      

 Startparameter for this run:
   NWRITE =      2    write-flag & timer
   PREC   = normal    normal or accurate (medium, high low for compatibility)
   ISTART =      1    job   : 0-new  1-cont  2-samecut
   ICHARG =      1    charge: 1-file 2-atom 10-const
   ISPIN  =      1    spin polarized calculation?
   LNONCOLLINEAR =      F non collinear calculations
   LSORBIT =      F    spin-orbit coupling
   INIWAV =      1    electr: 0-lowe 1-rand  2-diag
   LASPH  =      F    aspherical Exc in radial PAW
 Electronic Relaxation 1
   ENCUT  =  250.0 eV  18.37 Ry    4.29 a.u.  14.02 14.02 14.02*2*pi/ulx,y,z
   ENINI  =  250.0     initial cutoff
   ENAUG  =  322.1 eV  augmentation charge cutoff
   NELM   =     60;   NELMIN=  2; NELMDL=  0     # of ELM steps 
   EDIFF  = 0.1E-03   stopping-criterion for ELM
   LREAL  =      T    real-space projection
   NLSPLINE    = F    spline interpolate recip. space projectors
   LCOMPAT=      F    compatible to vasp.4.4
   GGA_COMPAT  = T    GGA compatible to vasp.4.4-vasp.4.6
   LMAXPAW     = -100 max onsite density
   LMAXMIX     =    2 max onsite mixed and CHGCAR
   VOSKOWN=      0    Vosko Wilk Nusair interpolation
   ROPT   =   -0.00050
 Ionic relaxation
   EDIFFG = 0.1E-02   stopping-criterion for IOM
   NSW    =      0    number of steps for IOM
   NBLOCK =      1;   KBLOCK =      1    inner block; outer block 
   IBRION =     -1    ionic relax: 0-MD 1-quasi-New 2-CG
   NFREE  =      0    steps in history (QN), initial steepest desc. (CG)
   ISIF   =      2    stress and relaxation
   IWAVPR =     10    prediction:  0-non 1-charg 2-wave 3-comb
   ISYM   =      2    0-nonsym 1-usesym 2-fastsym
   LCORR  =      T    Harris-Foulkes like correction to forces

   POTIM  = 0.5000    time-step for ionic-motion
   TEIN   =    0.0    initial temperature
   TEBEG  =    0.0;   TEEND  =   0.0 temperature during run
   SMASS  =  -3.00    Nose mass-parameter (am)
   estimated Nose-frequenzy (Omega)   =  0.10E-29 period in steps = 0.13E+47 mass=  -0.270E-26a.u.
   SCALEE = 1.0000    scale energy and forces
   NPACO  =    256;   APACO  = 10.0  distance and # of slots for P.C.
   PSTRESS=    0.0 pullay stress

  Mass of Ions in am
   POMASS =  28.09
  Ionic Valenz
   ZVAL   =   4.00
  Atomic Wigner-Seitz radii
   RWIGS  =  -1.00
  virtual crystal weights 
   VCA    =   1.00
   NELECT =     256.0000    total number of electrons
   NUPDOWN=      -1.0000    fix difference up-down

 DOS related values:
   EMIN   =  10.00;   EMAX   =-10.00  energy-range for DOS
   EFERMI =   0.00;   METHOD = LEGACY      
   ISMEAR =     0;   SIGMA  =   0.10  broadening in eV -4-tet -1-fermi 0-gaus

 Electronic relaxation 2 (details)
   IALGO  =     68    algorithm
   LDIAG  =      T    sub-space diagonalisation (order eigenvalues)
   LSUBROT=      F    optimize rotation matrix (better conditioning)
   TURBO    =      0    0=normal 1=particle mesh
   IRESTART =      0    0=no restart 2=restart with 2 vectors
   NREBOOT  =      0    no. of reboots
   NMIN     =      0    reboot dimension
   EREF     =   0.00    reference energy to select bands
   IMIX   =      4    mixing-type and parameters
     AMIX     =   0.40;   BMIX     =  1.00
     AMIX_MAG =   1.60;   BMIX_MAG =  1.00
     AMIN     =   0.10
     WC   =   100.;   INIMIX=   1;  MIXPRE=   1;  MAXMIX= -45

 Intra band minimization:
   WEIMIN = 0.0000     energy-eigenvalue tresh-hold
   EBREAK =  0.16E-06  absolut break condition
   DEPER  =   0.30     relativ break condition  

   TIME   =   0.40     timestep for ELM

  volume/ion in A,a.u.               =      20.09       135.58
  Fermi-wavevector in a.u.,A,eV,Ry     =   0.955934  1.806454 12.433144  0.913810
  Thomas-Fermi vector in A             =   2.084817
 
 Write flags
   LWAVE        =      T    write WAVECAR
   LDOWNSAMPLE  =      F    k-point downsampling of WAVECAR
   LCHARG       =      T    write CHGCAR
   LVTOT        =      F    write LOCPOT, total local potential
   LVHAR        =      F    write LOCPOT, Hartree potential only
   LELF         =      F    write electronic localiz. function (ELF)
   LORBIT       =      0    0 simple, 1 ext, 2 COOP (PROOUT), +10 PAW based schemes


 Dipole corrections
   LMONO  =      F    monopole corrections only (constant potential shift)
   LDIPOL =      F    correct potential (dipole corrections)
   IDIPOL =      0    1-x, 2-y, 3-z, 4-all directions 
   EPSILON=  1.0000000 bulk dielectric constant

 Exchange correlation treatment:
   GGA     =    --    GGA type
   LEXCH   =     8    internal setting for exchange type
   LIBXC   =     F    Libxc                    
   VOSKOWN =     0    Vosko Wilk Nusair interpolation
   LHFCALC =     F    Hartree Fock is set to
   LHFONE  =     F    Hartree Fock one center treatment
   AEXX    =    0.0000 exact exchange contribution

 Linear response parameters
   LEPSILON=     F    determine dielectric tensor
   LRPA    =     F    only Hartree local field effects (RPA)
   LNABLA  =     F    use nabla operator in PAW spheres
   LVEL    =     F    velocity operator in full k-point grid
   CSHIFT  =0.1000    complex shift for real part using Kramers Kronig
   OMEGAMAX=  -1.0    maximum frequency
   DEG_THRESHOLD= 0.2000000E-02 threshold for treating states as degnerate
   RTIME   =   -0.100 relaxation time in fs
  (WPLASMAI=    0.000 imaginary part of plasma frequency in eV, 0.658/RTIME)
   DFIELD  = 0.0000000 0.0000000 0.0000000 field for delta impulse in time
 
  Optional k-point grid parameters
   LKPOINTS_OPT  =     F    use optional k-point grid
   KPOINTS_OPT_MODE=     1    mode for optional k-point grid
 
 Orbital magnetization related:
   ORBITALMAG=     F  switch on orbital magnetization
   LCHIMAG   =     F  perturbation theory with respect to B field
   DQ        =  0.001000  dq finite difference perturbation B field
   LLRAUG    =     F  two centre corrections for induced B field
   LBONE     =     F  B-component reconstruction in AE one-centre
   LVGVCALC  =     T  calculate vGv susceptibility
   LVGVAPPL  =     F  apply vGv susceptibility instead of pGv for G=0

 Random number generation:
   RANDOM_GENERATOR = DEFAULT
   PCG_SEED         = not used


--------------------------------------------------------------------------------------------------------


 Static calculation
 charge density and potential will be updated during run
 non-spin polarized calculation
 RMM-DIIS sequential band-by-band and
  variant of blocked Davidson during initial phase
 perform sub-space diagonalisation
    before iterative eigenvector-optimisation
 modified Broyden-mixing scheme, WC =      100.0
 initial mixing is a Kerker type mixing with AMIX =  0.4000 and BMIX =      1.0000
 Hartree-type preconditioning will be used
 using additional bands           33
 real space projection scheme for non local part
 use partial core corrections
 calculate Harris-corrections to forces 
   (improved forces if not selfconsistent)
 use gradient corrections 
 use of overlap-Matrix (Vanderbilt PP)
 Gauss-broadening in eV      SIGMA  =   0.10


--------------------------------------------------------------------------------------------------------


  energy-cutoff  :      250.00
  volume of cell :     1285.82
      direct lattice vectors                 reciprocal lattice vectors
    10.872185770  0.000000000  0.000000000     0.091977825  0.000043798  0.000084554
    -0.005179120 10.876280340  0.000000000     0.000000000  0.091943198 -0.000065064
    -0.009999800  0.007694930 10.873844040     0.000000000  0.000000000  0.091963798

  length of vectors
    10.872185770 10.876281573 10.873851361     0.091977874  0.091943221  0.091963798


 
 old parameters found on file WAVECAR:
  energy-cutoff  :      250.00
  volume of cell :     1285.76
      direct lattice vectors                 reciprocal lattice vectors
    10.872085550  0.000000000  0.000000000     0.091978673  0.000048812  0.000087129
    -0.005771870 10.876088990  0.000000000     0.000000000  0.091944816 -0.000064065
    -0.010304340  0.007576510 10.873661730     0.000000000  0.000000000  0.091965340

  length of vectors

 
 k-points in units of 2pi/SCALE and weight: K-Points                                
   0.02299446  0.02299675  0.02299582       0.250
   0.02299446  0.02299675 -0.02298608       0.250
  -0.02299446  0.02297485  0.02295355       0.250
   0.02299446 -0.02297485  0.02302835       0.250
 
 k-points in reciprocal lattice and weights: K-Points                                
   0.25000000  0.25000000  0.25000000       0.250
   0.25000000  0.25000000 -0.25000000       0.250
  -0.25000000  0.25000000  0.25000000       0.250
   0.25000000 -0.25000000  0.25000000       0.250
 
 position of ions in fractional coordinates (direct lattice) 
   0.00645457  0.00611711  0.00226781
   0.26013129  0.25108193  0.00375299
   0.25873095  0.99809028  0.25384622
   0.00022065  0.25234110  0.24568359
   0.13251659  0.13226682  0.12770289
   0.37433693  0.38011337  0.13135531
   0.37624815  0.12988901  0.38114732
   0.13038936  0.37819893  0.37741736
   0.00750331  0.00896152  0.50828549
   0.25439673  0.25720106  0.50198296
   0.25408572  0.00653475  0.75613694
   0.00065533  0.25409744  0.75932245
   0.12487292  0.13108545  0.62973751
   0.37547841  0.38487743  0.63011088
   0.38431686  0.13455838  0.87758417
   0.13478330  0.38097685  0.88087518
   0.00735582  0.50175849  0.01052399
   0.25054318  0.75059565  0.00489298
   0.25860989  0.50310726  0.25486204
   0.00700941  0.75967307  0.25816987
   0.13074311  0.62445546  0.13422513
   0.37989663  0.87051957  0.13027409
   0.37878827  0.62453111  0.37803541
   0.13430323  0.88119961  0.38164689
   0.01412636  0.50074926  0.50148027
   0.25454375  0.75274504  0.50428384
   0.25495874  0.50646610  0.75387384
   0.00018886  0.74936675  0.75439037
   0.12903719  0.62677751  0.62453323
   0.37728607  0.87945473  0.62718313
   0.37583251  0.63636629  0.87636686
   0.12755554  0.87731759  0.88334324
   0.49825734  0.01294959  0.00968705
   0.75423046  0.25599665  0.00660925
   0.75614705  0.00850352  0.25892870
   0.49744338  0.25292310  0.25277772
   0.62835824  0.13155570  0.13622628
   0.87219849  0.38697626  0.12884599
   0.88398308  0.13167876  0.38127813
   0.62528539  0.38305771  0.38160158
   0.50714073  0.01000237  0.50057684
   0.75402607  0.26064475  0.50338324
   0.75174098  0.99756393  0.75815667
   0.50639781  0.25821499  0.74834216
   0.62534564  0.12922013  0.62572739
   0.88840566  0.37617531  0.62808627
   0.87708848  0.13278852  0.87602423
   0.62819291  0.37881439  0.87987559
   0.50173772  0.49649623  0.00810923
   0.75668885  0.75205367  0.99890955
   0.74899976  0.51022640  0.26051645
   0.51231564  0.75633508  0.25031006
   0.63708464  0.62396493  0.11928141
   0.88273054  0.87479833  0.12634341
   0.87918889  0.62608436  0.38470410
   0.62604482  0.88374364  0.37467399
   0.50819749  0.49955417  0.50501479
   0.74675585  0.75269271  0.50198534
   0.75613407  0.50024892  0.75268065
   0.50082944  0.75132856  0.75073515
   0.62729507  0.62537487  0.64005935
   0.88005563  0.87167260  0.62203918
   0.88571483  0.62753701  0.87399374
   0.62424506  0.88077071  0.88807284
 
 position of ions in cartesian coordinates  (Angst):
   0.07012097  0.06654888  0.02465985
   2.82685780  2.73086638  0.04080944
   2.80526332 10.85746307  2.76028418
  -0.00136471  2.74642306  2.67152503
   1.43878298  1.43955364  1.38862136
   4.06657845  4.13523031  1.42833713
   4.08615572  1.41564220  4.14453650
   1.41188446  4.11630179  4.10397750
   0.07644821  0.10137919  5.52701715
   2.75949675  2.80125358  5.45848439
   2.75487213  0.07689221  8.22211517
  -0.00178417  2.76947789  8.25675395
   1.35066540  1.43056792  6.84766742
   4.07397677  4.19088352  6.85172740
   4.16889174  1.47024760  9.54271338
   1.45460733  4.15038930  9.57849931
   0.07726992  5.45734703  0.11443621
   2.72001562  8.16372640  0.05320555
   2.80650059  5.47389677  2.77133010
   0.06969150  8.26440383  2.80729889
   1.41688698  6.79278547  1.45954318
   4.12449554  9.46901731  1.41658009
   4.11124167  6.79548438  4.11069812
   1.45178939  9.58711074  4.14996873
   0.14597630  5.45014821  5.45301825
   2.75850564  8.19094648  5.48350387
   2.76179711  5.51426829  8.19750656
  -0.00937153  8.15612784  8.20312320
   1.39342495  6.82181362  6.79107693
   4.09109768  9.57002229  6.81989152
   4.07406157  6.92804172  9.52947661
   1.37343059  9.54874935  9.60533662
   5.41698244  0.14091794  0.10533543
   8.19874178  2.78434221  0.07186795
   8.21833788  0.09447910  2.81555035
   5.40445916  2.75280769  2.74866555
   6.82958390  1.43188491  1.48130328
   9.47941135  4.20985375  1.40105115
   9.60633354  1.43510898  4.14595896
   6.79241906  4.16917949  4.14947611
   5.50867081  0.11264050  5.44319450
   8.19152785  2.83871884  5.47371084
   8.16031965 10.85561887  8.24407737
   5.49683048  2.81417704  8.13735595
   6.79194756  1.41024928  6.80406206
   9.65068238  4.09622126  6.82971211
   9.52642110  1.45098612  9.52575083
   6.81906956  4.12686211  9.56762999
   5.45233317  5.40009457  0.08817848
   8.21297786  8.18723305 10.86198661
   8.13801693  5.55137006  2.83281523
   5.56357059  8.22803845  2.72183258
   6.92207819  6.78733536  1.29704740
   9.59141637  9.51552405  1.37383852
   9.55161537  6.81242930  4.18321243
   6.79815194  9.61472667  4.07414656
   5.51758017  5.43717730  5.49145204
   8.10995029  8.19035969  5.45851033
   8.21071259  5.44663928  8.18453201
   5.43371225  8.17743687  8.16337691
   6.81042913  6.80667757  6.95990554
   9.55739356  9.48534212  6.76395706
   9.61766631  6.83199377  9.50367161
   6.77346612  9.58634283  9.65676556
 


--------------------------------------------------------------------------------------------------------


 k-point   1 :   0.2500 0.2500 0.2500  plane waves:   11545
 k-point   2 :   0.2500 0.2500-0.2500  plane waves:   11543
 k-point   3 :  -0.2500 0.2500 0.2500  plane waves:   11552
 k-point   4 :   0.2500-0.2500 0.2500  plane waves:   11544

 maximum and minimum number of plane-waves per node :       438      391

 maximum number of plane-waves:     11552
 maximum index in each direction: 
   IXMAX=   14   IYMAX=   14   IZMAX=   14
   IXMIN=  -14   IYMIN=  -14   IZMIN=  -14


 real space projection operators:
  total allocation   :       3493.06 KBytes
  max/ min on nodes  :        172.44         78.31


 parallel 3D FFT for wavefunctions:
    minimum data exchange during FFTs selected (reduces bandwidth)
 parallel 3D FFT for charge:
    minimum data exchange during FFTs selected (reduces bandwidth)


 total amount of memory used by VASP MPI-rank0    37861. kBytes
=======================================================================

   base      :      30000. kBytes
   nonlr-proj:       1201. kBytes
   fftplans  :        841. kBytes
   grid      :       1174. kBytes
   one-center:          9. kBytes
   wavefun   :       4636. kBytes
 
     INWAV:  cpu time     18.6881: real time     18.7303
 Broyden mixing: mesh for mixing (old mesh)
   NGX = 29   NGY = 29   NGZ = 29
  (NGX  = 84   NGY  = 84   NGZ  = 84)
  gives a total of  24389 points

 initial charge density was supplied:
 number of electron     255.9999982 magnetization 
 keeping initial charge density in first step


--------------------------------------------------------------------------------------------------------


 Maximum index for non-local projection operator          115
 Maximum index for augmentation-charges          185 (set IRDMAX)


--------------------------------------------------------------------------------------------------------


 First call to EWALD:  gamma=   0.163
 Maximum number of real-space cells 3x 3x 3
 Maximum number of reciprocal cells 3x 3x 3

    FEWALD:  cpu time      0.0015: real time      0.0015


--------------------------------------- Ionic step        1  -------------------------------------------




--------------------------------------- Iteration      1(   1)  ---------------------------------------


    POTLOK:  cpu time      0.2452: real time      0.2461
    SETDIJ:  cpu time      0.0320: real time      0.0321
     EDDAV:  cpu time     40.9626: real time     41.0562
       DOS:  cpu time      0.1085: real time      0.1087
    CHARGE:  cpu time      2.3598: real time      2.3652
    MIXING:  cpu time      0.0626: real time      0.0628
    --------------------------------------------
      LOOP:  cpu time     43.7708: real time     43.8712

 eigenvalue-minimisations  :  1496
 total energy-change (2. order) :-0.3447641E+03  (-0.7843518E-01)
 number of electron     255.9999996 magnetization 
 augmentation part      -14.6525632 magnetization 

 Broyden mixing:
  rms(total) = 0.49136E-01    rms(broyden)= 0.49132E-01
  rms(prec ) = 0.51928E-01
  weight for this iteration     100.00

 Free energy of the ion-electron system (eV)
  ---------------------------------------------------
  alpha Z        PSCENC =       107.23439235
  Ewald energy   TEWEN  =     -7299.96894502
  -Hartree energ DENC   =      -481.45945543
  -exchange      EXHF   =         0.00000000
  -V(xc)+E(xc)   XCENC  =      -575.16386535
  PAW double counting   =     32170.77030801   -31052.10688821
  entropy T*S    EENTRO =        -0.00000000
  eigenvalues    EBANDS =       189.97834471
  atomic energy  EATOM  =      6595.95197522
  Solvation  Ediel_sol  =         0.00000000
  ---------------------------------------------------
  free energy    TOTEN  =      -344.76413372 eV

  energy without entropy =     -344.76413372  energy(sigma->0) =     -344.76413372


--------------------------------------------------------------------------------------------------------




--------------------------------------- Iteration      1(   2)  ---------------------------------------


    POTLOK:  cpu time      0.0475: real time      0.0480
    SETDIJ:  cpu time      0.0019: real time      0.0019
    EDDIAG:  cpu time      7.6193: real time      7.6368
  RMM-DIIS:  cpu time     21.3269: real time     21.3752
    ORTHCH:  cpu time      0.0724: real time      0.0726
       DOS:  cpu time      0.0013: real time      0.0013
    CHARGE:  cpu time      0.5130: real time      0.5141
    MIXING:  cpu time      0.1727: real time      0.1730
    --------------------------------------------
      LOOP:  cpu time     29.7550: real time     29.8230

 eigenvalue-minimisations  :  1330
 total energy-change (2. order) :-0.4094418E-02  (-0.4628997E-02)
 number of electron     255.9999996 magnetization 
 augmentation part      -14.6532029 magnetization 

 Broyden mixing:
  rms(total) = 0.17825E-01    rms(broyden)= 0.17823E-01
  rms(prec ) = 0.21234E-01
  weight for this iteration     100.00

 eigenvalues of (default mixing * dielectric matrix)
  average eigenvalue GAMMA=   1.3196
  1.3196

 Free energy of the ion-electron system (eV)
  ---------------------------------------------------
  alpha Z        PSCENC =       107.23439235
  Ewald energy   TEWEN  =     -7299.96894502
  -Hartree energ DENC   =      -481.47210966
  -exchange      EXHF   =         0.00000000
  -V(xc)+E(xc)   XCENC  =      -575.16363723
  PAW double counting   =     32178.08162981   -31059.41422971
  entropy T*S    EENTRO =        -0.00000000
  eigenvalues    EBANDS =       189.98269610
  atomic energy  EATOM  =      6595.95197522
  Solvation  Ediel_sol  =         0.00000000
  ---------------------------------------------------
  free energy    TOTEN  =      -344.76822814 eV

  energy without entropy =     -344.76822814  energy(sigma->0) =     -344.76822814


--------------------------------------------------------------------------------------------------------




--------------------------------------- Iteration      1(   3)  ---------------------------------------


    POTLOK:  cpu time      0.0457: real time      0.0470
    SETDIJ:  cpu time      0.0019: real time      0.0019
    EDDIAG:  cpu time      4.9956: real time      5.0072
  RMM-DIIS:  cpu time     24.2794: real time     24.3338
    ORTHCH:  cpu time      0.2974: real time      0.2981
       DOS:  cpu time      0.0363: real time      0.0364
    CHARGE:  cpu time      2.1394: real time      2.1441
    MIXING:  cpu time      0.0003: real time      0.0003
    --------------------------------------------
      LOOP:  cpu time     31.7961: real time     31.8688

 eigenvalue-minimisations  :  1522
 total energy-change (2. order) :-0.5347393E-03  (-0.8379895E-03)
 number of electron     255.9999996 magnetization 
 augmentation part      -14.6535329 magnetization 

 Broyden mixing:
  rms(total) = 0.84369E-02    rms(broyden)= 0.84363E-02
  rms(prec ) = 0.10077E-01
  weight for this iteration     100.00

 eigenvalues of (default mixing * dielectric matrix)
  average eigenvalue GAMMA=   1.6560
  1.6560  1.6560

 Free energy of the ion-electron system (eV)
  ---------------------------------------------------
  alpha Z        PSCENC =       107.23439235
  Ewald energy   TEWEN  =     -7299.96894502
  -Hartree energ DENC   =      -481.47974267
  -exchange      EXHF   =         0.00000000
  -V(xc)+E(xc)   XCENC  =      -575.16383088
  PAW double counting   =     32179.86952532   -31061.19937604
  entropy T*S    EENTRO =        -0.00000000
  eigenvalues    EBANDS =       189.98723885
  atomic energy  EATOM  =      6595.95197522
  Solvation  Ediel_sol  =         0.00000000
  ---------------------------------------------------
  free energy    TOTEN  =      -344.76876288 eV

  energy without entropy =     -344.76876288  energy(sigma->0) =     -344.76876288


--------------------------------------------------------------------------------------------------------




--------------------------------------- Iteration      1(   4)  ---------------------------------------


    POTLOK:  cpu time      0.2409: real time      0.2415
    SETDIJ:  cpu time      0.0019: real time      0.0019
    EDDIAG:  cpu time      6.8944: real time      6.9099
  RMM-DIIS:  cpu time     23.0307: real time     23.0823
    ORTHCH:  cpu time      0.2679: real time      0.2685
       DOS:  cpu time      0.0013: real time      0.0013
    CHARGE:  cpu time      1.5864: real time      1.5899
    MIXING:  cpu time      0.0003: real time      0.0003
    --------------------------------------------
      LOOP:  cpu time     32.0239: real time     32.0958

 eigenvalue-minimisations  :  1576
 total energy-change (2. order) :-0.9135120E-04  (-0.1561965E-03)
 number of electron     255.9999996 magnetization 
 augmentation part      -14.6535787 magnetization 

 Broyden mixing:
  rms(total) = 0.38371E-02    rms(broyden)= 0.38368E-02
  rms(prec ) = 0.43342E-02
  weight for this iteration     100.00

 eigenvalues of (default mixing * dielectric matrix)
  average eigenvalue GAMMA=   1.7415
  1.0245  1.7318  2.4680

 Free energy of the ion-electron system (eV)
  ---------------------------------------------------
  alpha Z        PSCENC =       107.23439235
  Ewald energy   TEWEN  =     -7299.96894502
  -Hartree energ DENC   =      -481.48428453
  -exchange      EXHF   =         0.00000000
  -V(xc)+E(xc)   XCENC  =      -575.16435411
  PAW double counting   =     32176.65361852   -31057.98214159
  entropy T*S    EENTRO =        -0.00000000
  eigenvalues    EBANDS =       189.99088494
  atomic energy  EATOM  =      6595.95197522
  Solvation  Ediel_sol  =         0.00000000
  ---------------------------------------------------
  free energy    TOTEN  =      -344.76885423 eV

  energy without entropy =     -344.76885423  energy(sigma->0) =     -344.76885423


--------------------------------------------------------------------------------------------------------




--------------------------------------- Iteration      1(   5)  ---------------------------------------


    POTLOK:  cpu time      0.0451: real time      0.0464
    SETDIJ:  cpu time      0.0019: real time      0.0019
    EDDIAG:  cpu time      4.9140: real time      4.9255
  RMM-DIIS:  cpu time     19.0635: real time     19.1066
    ORTHCH:  cpu time      0.2061: real time      0.2067
       DOS:  cpu time      0.1391: real time      0.1394
    --------------------------------------------
      LOOP:  cpu time     24.3697: real time     24.4263

 eigenvalue-minimisations  :  1078
 total energy-change (2. order) :-0.2053054E-04  (-0.2828524E-04)
 number of electron     255.9999996 magnetization 
 augmentation part      -14.6535787 magnetization 

 Free energy of the ion-electron system (eV)
  ---------------------------------------------------
  alpha Z        PSCENC =       107.23439235
  Ewald energy   TEWEN  =     -7299.96894502
  -Hartree energ DENC   =      -481.48650207
  -exchange      EXHF   =         0.00000000
  -V(xc)+E(xc)   XCENC  =      -575.16473166
  PAW double counting   =     32173.76725983   -31055.09516602
  entropy T*S    EENTRO =        -0.00000000
  eigenvalues    EBANDS =       189.99284261
  atomic energy  EATOM  =      6595.95197522
  Solvation  Ediel_sol  =         0.00000000
  ---------------------------------------------------
  free energy    TOTEN  =      -344.76887476 eV

  energy without entropy =     -344.76887476  energy(sigma->0) =     -344.76887476


--------------------------------------------------------------------------------------------------------




 average (electrostatic) potential at core
  the test charge radii are     0.9892
  (the norm of the test charge is              1.0000)
       1 -83.2416       2 -83.2925       3 -83.2790       4 -83.3304       5 -83.3230
       6 -83.2973       7 -83.2750       8 -83.2868       9 -83.3037      10 -83.3306
      11 -83.3479      12 -83.2793      13 -83.2940      14 -83.2861      15 -83.3041
      16 -83.3532      17 -83.3329      18 -83.2889      19 -83.2815      20 -83.3157
      21 -83.2925      22 -83.2788      23 -83.3450      24 -83.2498      25 -83.3135
      26 -83.2978      27 -83.2864      28 -83.2719      29 -83.2605      30 -83.3289
      31 -83.2919      32 -83.2939      33 -83.3076      34 -83.2841      35 -83.2815
      36 -83.2979      37 -83.3095      38 -83.3027      39 -83.2896      40 -83.2994
      41 -83.2787      42 -83.3085      43 -83.2940      44 -83.2770      45 -83.2870
      46 -83.3055      47 -83.2818      48 -83.2872      49 -83.3679      50 -83.2863
      51 -83.2880      52 -83.3076      53 -83.3046      54 -83.3098      55 -83.3225
      56 -83.3018      57 -83.2605      58 -83.3107      59 -83.3045      60 -83.2958
      61 -83.3166      62 -83.3009      63 -83.2491      64 -83.2942
 
 
 
 E-fermi :   6.0534     XC(G=0):  -9.3978     alpha+bet :-11.9380

 Fermi energy:         6.0534196825

 k-point     1 :       0.2500    0.2500    0.2500
  band No.  band energies     occupation 
      1      -5.9617      2.00000
      2      -5.4474      2.00000
      3      -5.4113      2.00000
      4      -5.4069      2.00000
      5      -4.9358      2.00000
      6      -4.9136      2.00000
      7      -4.8910      2.00000
      8      -4.4752      2.00000
      9      -4.4078      2.00000
     10      -4.3648      2.00000
     11      -4.3555      2.00000
     12      -3.9911      2.00000
     13      -3.9721      2.00000
     14      -3.9578      2.00000
     15      -3.9480      2.00000
     16      -3.9160      2.00000
     17      -3.8977      2.00000
     18      -3.7636      2.00000
     19      -3.7309      2.00000
     20      -3.6957      2.00000
     21      -3.2822      2.00000
     22      -3.2387      2.00000
     23      -3.1872      2.00000
     24      -2.9131      2.00000
     25      -2.8919      2.00000
     26      -2.8443      2.00000
     27      -2.7226      2.00000
     28      -2.7079      2.00000
     29      -2.6955      2.00000
     30      -2.6728      2.00000
     31      -2.6483      2.00000
     32      -2.6146      2.00000
     33      -1.2190      2.00000
     34      -1.1874      2.00000
     35      -1.1642      2.00000
     36      -1.1423      2.00000
     37      -1.1265      2.00000
     38      -1.1074      2.00000
     39      -1.0486      2.00000
     40      -1.0283      2.00000
     41      -0.9868      2.00000
     42      -0.9640      2.00000
     43      -0.9226      2.00000
     44      -0.8938      2.00000
     45      -0.8725      2.00000
     46      -0.8213      2.00000
     47      -0.7487      2.00000
     48      -0.1567      2.00000
     49      -0.0970      2.00000
     50      -0.0482      2.00000
     51      -0.0348      2.00000
     52      -0.0233      2.00000
     53       0.0069      2.00000
     54       0.0276      2.00000
     55       0.8110      2.00000
     56       0.8484      2.00000
     57       0.9116      2.00000
     58       1.1538      2.00000
     59       1.1604      2.00000
     60       1.2002      2.00000
     61       1.7101      2.00000
     62       1.7144      2.00000
     63       1.7336      2.00000
     64       1.7441      2.00000
     65       1.7507      2.00000
     66       1.7726      2.00000
     67       1.7977      2.00000
     68       1.8254      2.00000
     69       1.8684      2.00000
     70       2.3119      2.00000
     71       2.3543      2.00000
     72       2.3793      2.00000
     73       2.4263      2.00000
     74       2.4397      2.00000
     75       2.4685      2.00000
     76       2.4763      2.00000
     77       2.4903      2.00000
     78       2.5208      2.00000
     79       2.5690      2.00000
     80       2.5985      2.00000
     81       2.6289      2.00000
     82       2.8149      2.00000
     83       2.8298      2.00000
     84       2.8395      2.00000
     85       2.8552      2.00000
     86       2.8734      2.00000
     87       2.8845      2.00000
     88       3.0678      2.00000
     89       3.0966      2.00000
     90       3.1060      2.00000
     91       3.1456      2.00000
     92       3.1834      2.00000
     93       3.2128      2.00000
     94       3.4449      2.00000
     95       3.4738      2.00000
     96       3.4936      2.00000
     97       3.5042      2.00000
     98       3.5204      2.00000
     99       3.5601      2.00000
    100       3.6010      2.00000
    101       3.6139      2.00000
    102       3.6294      2.00000
    103       3.8136      2.00000
    104       3.8289      2.00000
    105       3.8672      2.00000
    106       3.8786      2.00000
    107       3.8860      2.00000
    108       3.9010      2.00000
    109       3.9297      2.00000
    110       3.9546      2.00000
    111       3.9838      2.00000
    112       4.1944      2.00000
    113       4.2357      2.00000
    114       4.2635      2.00000
    115       4.3254      2.00000
    116       4.4655      2.00000
    117       4.4920      2.00000
    118       4.5142      2.00000
    119       4.5253      2.00000
    120       4.5763      2.00000
    121       4.6315      2.00000
    122       4.7098      2.00000
    123       4.7439      2.00000
    124       5.0314      2.00000
    125       5.0675      2.00000
    126       5.1031      2.00000
    127       5.5308      2.00000
    128       5.5492      2.00000
    129       6.6621      0.00000
    130       6.6867      0.00000
    131       6.7039      0.00000
    132       7.0989      0.00000
    133       7.1441      0.00000
    134       7.1599      0.00000
    135       7.4262      0.00000
    136       7.5860      0.00000
    137       7.6367      0.00000
    138       7.6403      0.00000
    139       7.7233      0.00000
    140       7.7496      0.00000
    141       7.7888      0.00000
    142       7.8862      0.00000
    143       7.9289      0.00000
    144       7.9415      0.00000
    145       7.9521      0.00000
    146       7.9720      0.00000
    147       8.0099      0.00000
    148       8.1451      0.00000
    149       8.1659      0.00000
    150       8.1716      0.00000
    151       8.1793      0.00000
    152       8.2056      0.00000
    153       8.2310      0.00000
    154       8.2812      0.00000
    155       8.4596      0.00000
    156       8.4953      0.00000
    157       8.5134      0.00000
    158       8.5832      0.00000
    159       8.6184      0.00000
    160       8.6445      0.00000
    161       8.6689      0.00000

 k-point     2 :       0.2500    0.2500   -0.2500
  band No.  band energies     occupation 
      1      -5.9618      2.00000
      2      -5.4486      2.00000
      3      -5.4103      2.00000
      4      -5.4064      2.00000
      5      -4.9327      2.00000
      6      -4.9101      2.00000
      7      -4.8977      2.00000
      8      -4.4762      2.00000
      9      -4.3977      2.00000
     10      -4.3720      2.00000
     11      -4.3533      2.00000
     12      -4.0038      2.00000
     13      -3.9832      2.00000
     14      -3.9635      2.00000
     15      -3.9477      2.00000
     16      -3.9289      2.00000
     17      -3.8859      2.00000
     18      -3.7507      2.00000
     19      -3.7308      2.00000
     20      -3.6664      2.00000
     21      -3.2698      2.00000
     22      -3.2337      2.00000
     23      -3.2185      2.00000
     24      -2.9490      2.00000
     25      -2.8846      2.00000
     26      -2.8255      2.00000
     27      -2.7418      2.00000
     28      -2.7062      2.00000
     29      -2.6869      2.00000
     30      -2.6743      2.00000
     31      -2.6407      2.00000
     32      -2.5991      2.00000
     33      -1.2193      2.00000
     34      -1.1928      2.00000
     35      -1.1845      2.00000
     36      -1.1673      2.00000
     37      -1.1355      2.00000
     38      -1.0931      2.00000
     39      -1.0627      2.00000
     40      -1.0328      2.00000
     41      -0.9772      2.00000
     42      -0.9465      2.00000
     43      -0.9186      2.00000
     44      -0.8715      2.00000
     45      -0.8550      2.00000
     46      -0.8158      2.00000
     47      -0.7532      2.00000
     48      -0.1658      2.00000
     49      -0.1009      2.00000
     50      -0.0751      2.00000
     51      -0.0430      2.00000
     52      -0.0032      2.00000
     53       0.0097      2.00000
     54       0.0411      2.00000
     55       0.8266      2.00000
     56       0.8515      2.00000
     57       0.8892      2.00000
     58       1.1557      2.00000
     59       1.1793      2.00000
     60       1.1967      2.00000
     61       1.6964      2.00000
     62       1.7126      2.00000
     63       1.7400      2.00000
     64       1.7488      2.00000
     65       1.7659      2.00000
     66       1.7697      2.00000
     67       1.7939      2.00000
     68       1.8226      2.00000
     69       1.8432      2.00000
     70       2.3265      2.00000
     71       2.3561      2.00000
     72       2.3714      2.00000
     73       2.4077      2.00000
     74       2.4441      2.00000
     75       2.4687      2.00000
     76       2.4714      2.00000
     77       2.5048      2.00000
     78       2.5228      2.00000
     79       2.5663      2.00000
     80       2.5961      2.00000
     81       2.6198      2.00000
     82       2.8240      2.00000
     83       2.8330      2.00000
     84       2.8449      2.00000
     85       2.8524      2.00000
     86       2.8596      2.00000
     87       2.8992      2.00000
     88       3.0718      2.00000
     89       3.0997      2.00000
     90       3.1193      2.00000
     91       3.1469      2.00000
     92       3.1666      2.00000
     93       3.1748      2.00000
     94       3.4446      2.00000
     95       3.4765      2.00000
     96       3.4806      2.00000
     97       3.4972      2.00000
     98       3.5279      2.00000
     99       3.5823      2.00000
    100       3.6050      2.00000
    101       3.6158      2.00000
    102       3.6278      2.00000
    103       3.8163      2.00000
    104       3.8404      2.00000
    105       3.8676      2.00000
    106       3.8871      2.00000
    107       3.8973      2.00000
    108       3.9158      2.00000
    109       3.9379      2.00000
    110       3.9527      2.00000
    111       3.9716      2.00000
    112       4.2067      2.00000
    113       4.2371      2.00000
    114       4.2589      2.00000
    115       4.2817      2.00000
    116       4.4775      2.00000
    117       4.4930      2.00000
    118       4.5186      2.00000
    119       4.5529      2.00000
    120       4.5769      2.00000
    121       4.6257      2.00000
    122       4.7194      2.00000
    123       4.7462      2.00000
    124       5.0283      2.00000
    125       5.0488      2.00000
    126       5.0838      2.00000
    127       5.5226      2.00000
    128       5.5538      2.00000
    129       6.6605      0.00000
    130       6.6752      0.00000
    131       6.7119      0.00000
    132       7.0949      0.00000
    133       7.1455      0.00000
    134       7.1642      0.00000
    135       7.4252      0.00000
    136       7.5866      0.00000
    137       7.6311      0.00000
    138       7.6429      0.00000
    139       7.7026      0.00000
    140       7.7549      0.00000
    141       7.7937      0.00000
    142       7.8708      0.00000
    143       7.9304      0.00000
    144       7.9613      0.00000
    145       7.9661      0.00000
    146       7.9862      0.00000
    147       8.0177      0.00000
    148       8.1311      0.00000
    149       8.1453      0.00000
    150       8.1648      0.00000
    151       8.1966      0.00000
    152       8.2158      0.00000
    153       8.2501      0.00000
    154       8.3010      0.00000
    155       8.5236      0.00000
    156       8.6014      0.00000
    157       8.6492      0.00000
    158       8.6995      0.00000
    159       8.7808      0.00000
    160       8.8122      0.00000
    161       8.9405      0.00000

 k-point     3 :      -0.2500    0.2500    0.2500
  band No.  band energies     occupation 
      1      -5.9616      2.00000
      2      -5.4512      2.00000
      3      -5.4151      2.00000
      4      -5.4007      2.00000
      5      -4.9336      2.00000
      6      -4.9080      2.00000
      7      -4.8900      2.00000
      8      -4.4777      2.00000
      9      -4.4056      2.00000
     10      -4.3738      2.00000
     11      -4.3554      2.00000
     12      -4.0405      2.00000
     13      -3.9926      2.00000
     14      -3.9588      2.00000
     15      -3.9453      2.00000
     16      -3.9055      2.00000
     17      -3.8759      2.00000
     18      -3.7551      2.00000
     19      -3.7052      2.00000
     20      -3.6544      2.00000
     21      -3.2820      2.00000
     22      -3.2480      2.00000
     23      -3.2065      2.00000
     24      -2.9551      2.00000
     25      -2.9062      2.00000
     26      -2.8361      2.00000
     27      -2.7308      2.00000
     28      -2.7058      2.00000
     29      -2.6820      2.00000
     30      -2.6559      2.00000
     31      -2.6432      2.00000
     32      -2.6010      2.00000
     33      -1.2346      2.00000
     34      -1.1925      2.00000
     35      -1.1767      2.00000
     36      -1.1465      2.00000
     37      -1.1193      2.00000
     38      -1.1012      2.00000
     39      -1.0747      2.00000
     40      -1.0083      2.00000
     41      -0.9831      2.00000
     42      -0.9465      2.00000
     43      -0.9067      2.00000
     44      -0.8913      2.00000
     45      -0.8633      2.00000
     46      -0.8224      2.00000
     47      -0.7651      2.00000
     48      -0.1560      2.00000
     49      -0.1198      2.00000
     50      -0.0721      2.00000
     51      -0.0427      2.00000
     52      -0.0212      2.00000
     53      -0.0014      2.00000
     54       0.0787      2.00000
     55       0.8158      2.00000
     56       0.8709      2.00000
     57       0.8776      2.00000
     58       1.1537      2.00000
     59       1.1818      2.00000
     60       1.1997      2.00000
     61       1.7049      2.00000
     62       1.7155      2.00000
     63       1.7314      2.00000
     64       1.7469      2.00000
     65       1.7644      2.00000
     66       1.7749      2.00000
     67       1.8001      2.00000
     68       1.8286      2.00000
     69       1.8569      2.00000
     70       2.3078      2.00000
     71       2.3499      2.00000
     72       2.3733      2.00000
     73       2.4236      2.00000
     74       2.4533      2.00000
     75       2.4640      2.00000
     76       2.4791      2.00000
     77       2.5062      2.00000
     78       2.5300      2.00000
     79       2.5739      2.00000
     80       2.5953      2.00000
     81       2.6277      2.00000
     82       2.8111      2.00000
     83       2.8188      2.00000
     84       2.8327      2.00000
     85       2.8477      2.00000
     86       2.8701      2.00000
     87       2.8869      2.00000
     88       3.0833      2.00000
     89       3.1154      2.00000
     90       3.1256      2.00000
     91       3.1372      2.00000
     92       3.1507      2.00000
     93       3.1764      2.00000
     94       3.4237      2.00000
     95       3.4585      2.00000
     96       3.4688      2.00000
     97       3.4898      2.00000
     98       3.5210      2.00000
     99       3.5489      2.00000
    100       3.5966      2.00000
    101       3.6149      2.00000
    102       3.6405      2.00000
    103       3.8185      2.00000
    104       3.8299      2.00000
    105       3.8640      2.00000
    106       3.8894      2.00000
    107       3.9099      2.00000
    108       3.9296      2.00000
    109       3.9411      2.00000
    110       3.9702      2.00000
    111       3.9730      2.00000
    112       4.1807      2.00000
    113       4.2516      2.00000
    114       4.2719      2.00000
    115       4.2790      2.00000
    116       4.4654      2.00000
    117       4.4979      2.00000
    118       4.5292      2.00000
    119       4.5506      2.00000
    120       4.6025      2.00000
    121       4.6211      2.00000
    122       4.7320      2.00000
    123       4.7482      2.00000
    124       5.0041      2.00000
    125       5.0599      2.00000
    126       5.1013      2.00000
    127       5.5312      2.00000
    128       5.5510      2.00000
    129       6.6858      0.00000
    130       6.6968      0.00000
    131       6.7032      0.00000
    132       7.0900      0.00000
    133       7.1355      0.00000
    134       7.1976      0.00000
    135       7.4399      0.00000
    136       7.6023      0.00000
    137       7.6310      0.00000
    138       7.6649      0.00000
    139       7.6952      0.00000
    140       7.7117      0.00000
    141       7.7758      0.00000
    142       7.8978      0.00000
    143       7.9219      0.00000
    144       7.9555      0.00000
    145       7.9760      0.00000
    146       7.9909      0.00000
    147       8.0040      0.00000
    148       8.1166      0.00000
    149       8.1345      0.00000
    150       8.1607      0.00000
    151       8.1664      0.00000
    152       8.1899      0.00000
    153       8.2273      0.00000
    154       8.3006      0.00000
    155       8.4677      0.00000
    156       8.4868      0.00000
    157       8.5224      0.00000
    158       8.5667      0.00000
    159       8.6059      0.00000
    160       8.6380      0.00000
    161       8.6610      0.00000

 k-point     4 :       0.2500   -0.2500    0.2500
  band No.  band energies     occupation 
      1      -5.9619      2.00000
      2      -5.4479      2.00000
      3      -5.4135      2.00000
      4      -5.4025      2.00000
      5      -4.9418      2.00000
      6      -4.9098      2.00000
      7      -4.8918      2.00000
      8      -4.4795      2.00000
      9      -4.3962      2.00000
     10      -4.3742      2.00000
     11      -4.3508      2.00000
     12      -3.9991      2.00000
     13      -3.9823      2.00000
     14      -3.9663      2.00000
     15      -3.9343      2.00000
     16      -3.9039      2.00000
     17      -3.8923      2.00000
     18      -3.7646      2.00000
     19      -3.7371      2.00000
     20      -3.6903      2.00000
     21      -3.2662      2.00000
     22      -3.2396      2.00000
     23      -3.2106      2.00000
     24      -2.9154      2.00000
     25      -2.8899      2.00000
     26      -2.8485      2.00000
     27      -2.7368      2.00000
     28      -2.7076      2.00000
     29      -2.6764      2.00000
     30      -2.6651      2.00000
     31      -2.6412      2.00000
     32      -2.6217      2.00000
     33      -1.2222      2.00000
     34      -1.2033      2.00000
     35      -1.1866      2.00000
     36      -1.1542      2.00000
     37      -1.1428      2.00000
     38      -1.1039      2.00000
     39      -1.0668      2.00000
     40      -1.0187      2.00000
     41      -0.9693      2.00000
     42      -0.9291      2.00000
     43      -0.9097      2.00000
     44      -0.8986      2.00000
     45      -0.8494      2.00000
     46      -0.7881      2.00000
     47      -0.7745      2.00000
     48      -0.1654      2.00000
     49      -0.1070      2.00000
     50      -0.0706      2.00000
     51      -0.0309      2.00000
     52      -0.0121      2.00000
     53       0.0011      2.00000
     54       0.0357      2.00000
     55       0.8227      2.00000
     56       0.8641      2.00000
     57       0.8933      2.00000
     58       1.1572      2.00000
     59       1.1719      2.00000
     60       1.1920      2.00000
     61       1.7082      2.00000
     62       1.7245      2.00000
     63       1.7315      2.00000
     64       1.7403      2.00000
     65       1.7528      2.00000
     66       1.7604      2.00000
     67       1.7991      2.00000
     68       1.8228      2.00000
     69       1.8503      2.00000
     70       2.3307      2.00000
     71       2.3587      2.00000
     72       2.3858      2.00000
     73       2.4175      2.00000
     74       2.4458      2.00000
     75       2.4602      2.00000
     76       2.4726      2.00000
     77       2.4878      2.00000
     78       2.5085      2.00000
     79       2.5634      2.00000
     80       2.5970      2.00000
     81       2.6123      2.00000
     82       2.8070      2.00000
     83       2.8283      2.00000
     84       2.8445      2.00000
     85       2.8725      2.00000
     86       2.8794      2.00000
     87       2.8912      2.00000
     88       3.0606      2.00000
     89       3.1020      2.00000
     90       3.1231      2.00000
     91       3.1374      2.00000
     92       3.1603      2.00000
     93       3.1830      2.00000
     94       3.4520      2.00000
     95       3.4691      2.00000
     96       3.5041      2.00000
     97       3.5239      2.00000
     98       3.5426      2.00000
     99       3.5785      2.00000
    100       3.5921      2.00000
    101       3.6224      2.00000
    102       3.6322      2.00000
    103       3.8262      2.00000
    104       3.8360      2.00000
    105       3.8741      2.00000
    106       3.8838      2.00000
    107       3.8952      2.00000
    108       3.9086      2.00000
    109       3.9294      2.00000
    110       3.9568      2.00000
    111       3.9669      2.00000
    112       4.1962      2.00000
    113       4.2344      2.00000
    114       4.2611      2.00000
    115       4.2912      2.00000
    116       4.4677      2.00000
    117       4.4783      2.00000
    118       4.5144      2.00000
    119       4.5578      2.00000
    120       4.6022      2.00000
    121       4.6227      2.00000
    122       4.6980      2.00000
    123       4.7420      2.00000
    124       5.0152      2.00000
    125       5.0610      2.00000
    126       5.0904      2.00000
    127       5.5266      2.00000
    128       5.5401      2.00000
    129       6.6613      0.00000
    130       6.6735      0.00000
    131       6.6910      0.00000
    132       7.1026      0.00000
    133       7.1489      0.00000
    134       7.1712      0.00000
    135       7.4138      0.00000
    136       7.5897      0.00000
    137       7.6068      0.00000
    138       7.6350      0.00000
    139       7.7376      0.00000
    140       7.7555      0.00000
    141       7.7885      0.00000
    142       7.9017      0.00000
    143       7.9234      0.00000
    144       7.9325      0.00000
    145       7.9592      0.00000
    146       7.9729      0.00000
    147       8.0134      0.00000
    148       8.1386      0.00000
    149       8.1478      0.00000
    150       8.1816      0.00000
    151       8.1917      0.00000
    152       8.2040      0.00000
    153       8.2463      0.00000
    154       8.2899      0.00000
    155       8.4697      0.00000
    156       8.4964      0.00000
    157       8.5291      0.00000
    158       8.5725      0.00000
    159       8.6355      0.00000
    160       8.6899      0.00000
    161       8.7429      0.00000


--------------------------------------------------------------------------------------------------------


 soft charge-density along one line, spin component           1
         0         1         2         3         4         5         6         7         8         9
 total charge-density along one line
 
 pseudopotential strength for first ion, spin component:           1
 18.411  25.687   0.000  -0.000   0.000   0.001  -0.000  -0.000
 25.687  35.842   0.001  -0.000  -0.000   0.001  -0.000  -0.000
  0.000   0.001   4.177   0.000  -0.000   7.784   0.000  -0.000
 -0.000  -0.000   0.000   4.178  -0.000   0.000   7.784  -0.000
  0.000  -0.000  -0.000  -0.000   4.177  -0.000  -0.000   7.784
  0.001   0.001   7.784   0.000  -0.000  14.516   0.001  -0.000
 -0.000  -0.000   0.000   7.784  -0.000   0.001  14.516  -0.001
 -0.000  -0.000  -0.000  -0.000   7.784  -0.000  -0.001  14.516
 total augmentation occupancy for first ion, spin component:           1
  5.914  -2.268  -0.133  -0.040   0.120   0.047   0.014  -0.043
 -2.268   0.981   0.081   0.019  -0.062  -0.025  -0.006   0.020
 -0.133   0.081   3.327   0.082  -0.036  -0.810  -0.025   0.011
 -0.040   0.019   0.082   3.243  -0.028  -0.025  -0.779   0.009
  0.120  -0.062  -0.036  -0.028   3.265   0.011   0.009  -0.787
  0.047  -0.025  -0.810  -0.025   0.011   0.205   0.007  -0.003
  0.014  -0.006  -0.025  -0.779   0.009   0.007   0.195  -0.003
 -0.043   0.020   0.011   0.009  -0.787  -0.003  -0.003   0.198


------------------------ aborting loop because EDIFF is reached ----------------------------------------


    CHARGE:  cpu time      1.5331: real time      1.5366
    FORLOC:  cpu time      0.0141: real time      0.0141
    FORNL :  cpu time     12.1587: real time     12.1862
    STRESS:  cpu time     31.1982: real time     31.2680
    FORCOR:  cpu time      0.5400: real time      0.5412
    FORHAR:  cpu time      0.0396: real time      0.0397
    MIXING:  cpu time      0.0124: real time      0.0124
    OFIELD:  cpu time      0.0000: real time      0.0000

  FORCE on cell =-STRESS in cart. coord.  units (eV):
  Direction    XX          YY          ZZ          XY          YZ          ZX
  --------------------------------------------------------------------------------------
  Alpha Z   107.23439   107.23439   107.23439
  Ewald   -2432.86845 -2435.86270 -2431.28304     1.31088     8.15566    -1.89176
  Hartree   160.53478   159.29143   161.66264     0.08458     0.76825     0.03512
  E(xc)    -811.71496  -811.68205  -811.72230    -0.03062    -0.06967     0.01627
  Local    -943.58094  -939.31560  -946.33188    -1.42912    -8.31158     1.48946
  n-local  2494.76746  2494.13549  2494.85818     0.52306     1.76503    -0.50249
  augment  -372.15571  -372.10026  -372.15313    -0.04832    -0.05872    -0.01708
  Kinetic  1811.05430  1810.83968  1810.91462     0.14020    -1.44022     0.83967
  Fock        0.00000     0.00000     0.00000     0.00000     0.00000     0.00000
  -------------------------------------------------------------------------------------
  Total      13.27086    12.54039    13.17949     0.55066     0.80874    -0.03080
  in kB      16.53596    15.62577    16.42210     0.68614     1.00771    -0.03837
  external pressure =       16.19 kB  Pullay stress =        0.00 kB


 VOLUME and BASIS-vectors are now :
 -----------------------------------------------------------------------------
  energy-cutoff  :      250.00
  volume of cell :     1285.82
      direct lattice vectors                 reciprocal lattice vectors
    10.872185770  0.000000000  0.000000000     0.091977825  0.000043798  0.000084554
    -0.005179120 10.876280340  0.000000000     0.000000000  0.091943198 -0.000065064
    -0.009999800  0.007694930 10.873844040     0.000000000  0.000000000  0.091963798

  length of vectors
    10.872185770 10.876281573 10.873851361     0.091977874  0.091943221  0.091963798


 FORCES acting on ions
    electron-ion (+dipol)            ewald-force                    non-local-force                 convergence-correction
 -----------------------------------------------------------------------------------------------
   0.401E+01 -.188E+01 -.560E+00   -.364E+01 0.153E+01 0.429E+00   -.767E+00 0.545E+00 0.293E+00   0.129E-02 -.155E-02 -.665E-03
   0.272E+01 0.197E+01 0.231E+01   -.268E+01 -.193E+01 -.238E+01   -.515E+00 0.516E+00 -.641E-01   -.129E-03 -.926E-03 0.919E-03
   0.209E+01 -.137E+01 0.298E+01   -.205E+01 0.764E+00 -.252E+01   -.325E+00 0.124E+01 -.597E+00   0.150E-02 0.400E-03 -.160E-02
   0.188E+01 0.116E+00 0.127E+01   -.206E+01 -.291E+00 -.119E+01   0.442E+00 0.865E+00 0.431E+00   0.135E-04 -.153E-02 -.470E-03
   0.101E+01 0.406E+01 -.201E+01   -.133E+01 -.397E+01 0.160E+01   0.403E+00 -.906E+00 0.533E+00   0.175E-03 -.208E-02 -.939E-03
   -.156E+00 -.273E+00 0.166E+01   0.234E+00 0.152E+00 -.155E+01   0.327E+00 -.417E+00 -.328E+00   0.849E-03 -.189E-02 -.155E-02
   0.273E+01 0.252E+01 -.122E+01   -.227E+01 -.263E+01 0.113E+01   -.399E+00 -.711E-01 -.261E+00   0.175E-02 -.204E-02 -.907E-03
   0.419E+01 0.448E+01 0.546E+01   -.395E+01 -.426E+01 -.492E+01   -.262E+00 -.708E+00 -.145E+01   -.212E-02 0.174E-03 0.636E-03
   0.372E+01 0.462E+01 0.447E+00   -.331E+01 -.410E+01 -.202E+00   -.791E+00 -.144E+01 -.797E+00   -.882E-03 -.243E-02 0.760E-03
   0.588E+00 0.415E+01 -.404E+01   -.740E+00 -.384E+01 0.366E+01   -.150E+00 -.551E+00 0.102E+01   -.284E-03 -.251E-02 0.102E-02
   0.938E-01 0.145E+01 -.900E+00   -.241E+00 -.148E+01 0.749E+00   0.661E-01 -.202E+00 0.165E+00   -.110E-02 -.162E-02 0.119E-02
   -.298E+01 0.787E+00 -.316E+01   0.240E+01 -.101E+01 0.281E+01   0.161E+01 0.540E+00 0.128E+00   0.397E-03 0.505E-03 -.952E-03
   -.306E+01 -.357E+00 -.327E+01   0.256E+01 -.776E-01 0.305E+01   0.134E+01 0.939E+00 0.788E+00   -.103E-02 -.362E-03 0.302E-03
   0.105E+01 0.256E+01 -.998E+00   -.688E+00 -.230E+01 0.102E+01   0.366E-01 -.876E+00 -.341E+00   0.440E-03 -.891E-03 -.428E-03
   -.105E+01 0.384E+01 0.590E+01   0.111E+01 -.364E+01 -.549E+01   -.227E+00 -.460E+00 -.878E+00   0.126E-02 -.244E-02 0.200E-02
   0.209E+01 0.157E+01 0.500E+00   -.185E+01 -.162E+01 -.283E+00   -.677E+00 -.355E+00 -.896E-01   -.171E-02 0.127E-02 -.324E-03
   0.169E+01 -.306E+00 0.224E+01   -.157E+01 0.363E+00 -.184E+01   -.262E+00 0.242E+00 -.114E+01   0.412E-03 0.220E-02 -.225E-02
   0.107E+01 -.197E+01 -.636E+00   -.980E+00 0.187E+01 0.384E+00   -.836E-01 0.197E+00 0.514E+00   -.193E-02 0.188E-02 -.396E-03
   0.173E+01 -.200E+01 -.580E+00   -.175E+01 0.208E+01 0.522E+00   -.686E+00 -.137E+00 0.304E+00   -.117E-02 0.759E-03 -.134E-02
   0.338E+01 0.120E+00 -.977E+00   -.329E+01 0.282E+00 0.895E+00   -.253E+00 -.127E+01 0.139E+00   -.118E-02 0.762E-03 -.110E-03
   0.359E+01 -.415E+01 -.162E+01   -.347E+01 0.385E+01 0.143E+01   -.304E+00 0.957E+00 0.313E+00   -.175E-02 0.156E-02 -.242E-02
   -.494E+00 0.748E+00 0.420E+01   0.676E+00 -.802E+00 -.363E+01   -.222E+00 0.791E+00 -.102E+01   0.163E-02 0.199E-02 -.329E-03
   -.543E+01 -.699E+01 -.608E+00   0.516E+01 0.646E+01 0.629E+00   0.127E+01 0.134E+01 0.216E+00   0.782E-03 0.262E-02 -.177E-03
   0.395E+01 -.234E+01 -.193E+01   -.350E+01 0.224E+01 0.152E+01   -.902E+00 0.298E+00 0.592E+00   -.196E-02 0.344E-03 0.135E-02
   0.539E+01 -.991E+00 0.129E+01   -.480E+01 0.997E+00 -.113E+01   -.164E+01 0.109E+00 -.252E-01   -.248E-02 0.143E-02 0.247E-02
   -.222E+01 -.123E+01 -.672E-01   0.191E+01 0.151E+01 0.194E+00   0.506E+00 -.429E+00 -.340E+00   -.178E-02 0.110E-02 0.445E-03
   0.161E+01 -.117E+01 -.262E+01   -.139E+01 0.141E+01 0.244E+01   -.530E+00 0.895E-01 0.280E+00   -.370E-02 0.133E-02 0.123E-02
   -.371E+01 -.709E+01 0.221E+01   0.287E+01 0.640E+01 -.195E+01   0.197E+01 0.142E+01 -.106E+01   -.903E-03 0.358E-03 -.890E-03
   0.157E+01 -.538E+01 -.319E+01   -.149E+01 0.509E+01 0.300E+01   0.859E-01 0.716E+00 0.962E+00   -.392E-02 0.137E-02 0.156E-02
   -.219E+01 -.400E+01 -.516E+00   0.203E+01 0.370E+01 0.592E+00   0.532E+00 0.740E+00 -.134E+00   0.734E-03 0.145E-02 -.232E-03
   -.403E+01 0.673E+00 -.434E+01   0.366E+01 -.113E+00 0.372E+01   0.752E+00 -.168E+01 0.124E+01   -.401E-03 0.860E-03 0.113E-02
   0.406E+00 -.659E+00 0.469E+01   -.508E+00 0.109E+01 -.399E+01   0.148E+00 -.359E+00 -.147E+01   -.849E-03 -.126E-03 0.496E-03
   -.138E+01 0.316E+01 0.511E+00   0.140E+01 -.310E+01 -.717E+00   0.387E+00 -.955E+00 0.346E+00   0.871E-03 -.960E-04 0.188E-02
   -.793E+00 0.550E+01 0.183E+00   0.745E+00 -.496E+01 -.305E+00   -.262E+00 -.741E+00 -.219E-01   -.176E-02 -.760E-03 0.559E-06
   -.593E+01 0.334E+01 0.358E+01   0.558E+01 -.321E+01 -.306E+01   0.803E+00 -.700E+00 -.110E+01   -.169E-02 -.105E-02 -.302E-04
   -.363E+01 -.570E+00 -.150E+01   0.332E+01 0.174E+00 0.125E+01   0.739E+00 0.914E+00 0.870E+00   0.107E-02 -.320E-02 -.825E-03
   -.547E+01 0.260E+01 0.227E+01   0.522E+01 -.255E+01 -.210E+01   0.483E+00 -.179E-01 -.627E+00   -.242E-02 -.245E-02 -.333E-03
   0.133E+01 -.442E+00 -.242E+01   -.132E+01 0.225E+00 0.219E+01   0.134E+00 -.254E+00 0.738E+00   0.528E-03 -.209E-03 -.144E-02
   0.319E+00 0.139E+01 -.158E+01   -.488E+00 -.141E+01 0.132E+01   -.240E+00 0.183E+00 0.290E+00   -.160E-02 -.134E-02 0.113E-02
   -.239E+01 0.511E+01 0.513E+01   0.223E+01 -.455E+01 -.443E+01   0.420E+00 -.152E+01 -.156E+01   0.525E-03 -.151E-02 0.711E-03
   0.447E+00 0.542E+01 -.333E+01   -.287E+00 -.480E+01 0.326E+01   -.998E+00 -.141E+01 0.237E+00   0.178E-02 -.592E-03 -.110E-02
   -.891E+00 0.343E+01 -.632E+00   0.105E+01 -.332E+01 0.650E+00   0.740E-01 -.732E+00 0.542E-01   0.105E-03 -.162E-02 0.257E-03
   -.852E+00 0.140E+01 0.317E+01   0.695E+00 -.163E+01 -.277E+01   0.274E+00 0.580E+00 -.116E+01   0.748E-03 -.163E-02 -.201E-02
   -.131E+01 0.216E+01 0.571E+00   0.135E+01 -.211E+01 -.513E+00   -.329E+00 -.439E-01 0.174E+00   0.134E-02 -.194E-02 0.362E-03
   -.737E+01 0.374E+01 -.412E+01   0.682E+01 -.384E+01 0.391E+01   0.173E+01 0.240E+00 0.759E+00   0.186E-02 -.242E-02 -.125E-02
   0.160E+01 -.152E+01 0.989E+00   -.153E+01 0.968E+00 -.805E+00   -.794E+00 0.107E+01 -.324E+00   0.119E-02 0.159E-02 -.350E-03
   0.401E+01 0.531E+01 -.143E+01   -.369E+01 -.518E+01 0.119E+01   -.690E+00 -.960E+00 0.961E+00   0.516E-03 -.225E-02 -.901E-03
   -.143E+01 0.373E-01 0.613E+00   0.148E+01 -.405E+00 -.450E+00   0.121E+00 0.199E+00 -.281E+00   0.115E-02 -.398E-03 0.100E-02
   0.175E+01 -.512E+01 0.322E+01   -.143E+01 0.471E+01 -.301E+01   -.448E+00 0.146E+01 -.105E+01   0.408E-03 0.538E-03 0.243E-03
   -.170E+01 -.341E+01 0.170E+01   0.147E+01 0.323E+01 -.160E+01   0.607E+00 0.220E+00 -.181E+00   0.149E-02 0.130E-02 -.798E-03
   -.137E+01 -.701E+00 -.153E+01   0.136E+01 0.105E+01 0.132E+01   0.448E+00 -.771E+00 -.160E+00   -.421E-03 0.138E-02 0.117E-02
   -.260E+01 0.545E+01 -.556E+00   0.242E+01 -.473E+01 0.255E+00   -.209E+00 -.195E+01 0.208E+00   0.382E-03 0.235E-02 -.151E-02
   0.203E+01 -.314E+01 0.157E+01   -.154E+01 0.308E+01 -.141E+01   -.128E+01 0.501E+00 0.572E+00   -.727E-03 0.190E-02 -.444E-03
   0.372E+01 -.285E+01 -.955E+00   -.326E+01 0.272E+01 0.848E+00   -.911E+00 0.921E+00 0.393E+00   -.391E-03 -.537E-03 -.466E-03
   -.226E+01 -.350E+01 -.198E+00   0.173E+01 0.350E+01 0.310E-01   0.839E+00 0.563E+00 -.904E-01   0.308E-03 0.153E-02 0.281E-02
   -.240E+01 0.162E+01 -.263E+01   0.247E+01 -.135E+01 0.215E+01   0.434E+00 -.374E+00 0.921E+00   0.260E-03 0.198E-02 0.379E-03
   -.365E+00 -.645E+01 -.187E+01   0.440E+00 0.585E+01 0.162E+01   -.917E+00 0.169E+01 0.890E+00   0.260E-02 0.319E-03 0.382E-03
   0.411E+01 -.129E+01 0.262E+00   -.339E+01 0.138E+01 -.617E-01   -.722E+00 -.343E+00 0.622E-01   0.117E-02 0.474E-03 0.164E-02
   -.253E+01 0.175E+01 -.298E+00   0.245E+01 -.137E+01 0.392E+00   0.609E+00 -.501E+00 0.257E+00   0.226E-02 0.142E-02 -.596E-03
   -.386E+01 -.794E+01 -.518E+00   0.341E+01 0.740E+01 0.607E+00   0.693E+00 0.161E+01 0.600E+00   0.176E-02 0.131E-02 0.136E-03
   -.243E+01 -.382E+01 0.161E+01   0.235E+01 0.368E+01 -.144E+01   0.356E+00 0.241E+00 -.149E+01   0.260E-02 0.174E-02 -.108E-02
   0.132E+01 -.427E+01 -.629E-03   -.159E+01 0.379E+01 0.272E-01   -.787E-01 0.122E+01 0.619E+00   0.576E-04 -.819E-03 0.117E-02
   0.186E+01 0.284E+01 -.394E+01   -.175E+01 -.219E+01 0.322E+01   -.917E+00 -.144E+01 0.168E+01   0.116E-02 0.143E-02 -.424E-03
   0.325E+01 -.864E+00 0.178E+00   -.272E+01 0.118E+01 -.278E+00   -.854E+00 -.448E+00 -.468E+00   0.471E-03 0.870E-03 0.105E-02
 -----------------------------------------------------------------------------------------------
   0.436E-02 -.124E+00 -.330E-01   0.266E-13 -.431E-13 -.101E-12   0.163E-02 0.126E+00 0.377E-01   -.491E-03 -.749E-03 0.314E-03
 
 
 POSITION                                       TOTAL-FORCE (eV/Angst)
 -----------------------------------------------------------------------------------
      0.07012      0.06655      0.02466        -0.400354      0.198606      0.161306
      2.82686      2.73087      0.04081        -0.476990      0.551201     -0.134838
      2.80526     10.85746      2.76028        -0.290163      0.641018     -0.135538
     -0.00136      2.74642      2.67153         0.268028      0.688971      0.509614
      1.43878      1.43955      1.38862         0.079958     -0.819194      0.122062
      4.06658      4.13523      1.42834         0.405298     -0.540312     -0.220100
      4.08616      1.41564      4.14454         0.065588     -0.182942     -0.357713
      1.41188      4.11630      4.10398        -0.031715     -0.487174     -0.910504
      0.07645      0.10138      5.52702        -0.386173     -0.931057     -0.551374
      2.75950      2.80125      5.45848        -0.302256     -0.238436      0.635173
      2.75487      0.07689      8.22212        -0.082451     -0.226744      0.014696
     -0.00178      2.76948      8.25675         1.019707      0.320366     -0.218282
      1.35067      1.43057      6.84767         0.827004      0.504438      0.572577
      4.07398      4.19088      6.85173         0.398609     -0.620093     -0.320210
      4.16889      1.47025      9.54271        -0.168524     -0.267750     -0.466141
      1.45461      4.15039      9.57850        -0.439541     -0.410151      0.127192
      0.07727      5.45735      0.11444        -0.138743      0.300320     -0.748017
      2.72002      8.16373      0.05321         0.000119      0.097020      0.261909
      2.80650      5.47390      2.77133        -0.708277     -0.049507      0.244567
      0.06969      8.26440      2.80730        -0.163608     -0.871380      0.056947
      1.41689      6.79279      1.45954        -0.186995      0.660991      0.121234
      4.12450      9.46902      1.41658        -0.038174      0.738886     -0.451759
      4.11124      6.79548      4.11070         1.010158      0.803360      0.237414
      1.45179      9.58711      4.14997        -0.453452      0.199557      0.185886
      0.14598      5.45015      5.45302        -1.055884      0.116189      0.137414
      2.75851      8.19095      5.48350         0.188461     -0.142796     -0.212814
      2.76180      5.51427      8.19751        -0.312644      0.337879      0.102409
     -0.00937      8.15613      8.20312         1.135276      0.737726     -0.798412
      1.39342      6.82181      6.79108         0.158620      0.425733      0.775204
      4.09110      9.57002      6.81989         0.366013      0.439523     -0.059272
      4.07406      6.92804      9.52948         0.377183     -1.118323      0.628188
      1.37343      9.54875      9.60534         0.044776      0.073422     -0.768165
      5.41698      0.14092      0.10534         0.410794     -0.901285      0.141395
      8.19874      2.78434      0.07187        -0.312417     -0.200472     -0.144065
      8.21834      0.09448      2.81555         0.450967     -0.576265     -0.579491
      5.40446      2.75281      2.74867         0.429810      0.514886      0.621993
      6.82958      1.43188      1.48130         0.224045      0.024824     -0.451942
      9.47941      4.20985      1.40105         0.142608     -0.471360      0.502257
      9.60633      1.43511      4.14596        -0.410071      0.164437      0.028727
      6.79242      4.16918      4.14948         0.255122     -0.950644     -0.853008
      5.50867      0.11264      5.44319        -0.836688     -0.786750      0.164193
      8.19153      2.83872      5.47371         0.227703     -0.620000      0.072317
      8.16032     10.85562      8.24408         0.118716      0.348557     -0.764423
      5.49683      2.81418      8.13736        -0.282556     -0.001572      0.232317
      6.79195      1.41025      6.80406         1.174434      0.132084      0.547155
      9.65068      4.09622      6.82971        -0.719678      0.518360     -0.139802
      9.52642      1.45099      9.52575        -0.370612     -0.835813      0.721771
      6.81907      4.12686      9.56763         0.178331     -0.169089     -0.117467
      5.45233      5.40009      0.08818        -0.123134      1.057633     -0.837774
      8.21298      8.18723     10.86199         0.384624      0.035214     -0.089399
      8.13802      5.55137      2.83282         0.439499     -0.418830     -0.368832
      5.56357      8.22804      2.72183        -0.394581     -1.228431     -0.094652
      6.92208      6.78734      1.29705        -0.786520      0.449497      0.733821
      9.59142      9.51552      1.37384        -0.455067      0.795873      0.285258
      9.55162      6.81243      4.18321         0.305921      0.571898     -0.254741
      6.79815      9.61473      4.07415         0.504844     -0.104249      0.441305
      5.51758      5.43718      5.49145        -0.838809      1.093913      0.644747
      8.10995      8.19036      5.45851        -0.001877     -0.246465      0.263964
      8.21071      5.44664      8.18453         0.535137     -0.120299      0.349850
      5.43371      8.17744      8.16338         0.244326      1.074506      0.689261
      6.81043      6.80668      6.95991         0.274507      0.099029     -1.321896
      9.55739      9.48534      6.76396        -0.354430      0.733541      0.646998
      9.61767      6.83199      9.50367        -0.803318     -0.783628      0.957186
      6.77347      9.58634      9.65677        -0.320489     -0.128449     -0.567676
 -----------------------------------------------------------------------------------
    total drift:                                0.005499      0.001236      0.005011


--------------------------------------------------------------------------------------------------------



  FREE ENERGIE OF THE ION-ELECTRON SYSTEM (eV)
  ---------------------------------------------------
  free  energy   TOTEN  =      -344.76887476 eV

  energy  without entropy=     -344.76887476  energy(sigma->0) =     -344.76887476
 


--------------------------------------------------------------------------------------------------------


    POTLOK:  cpu time      0.2803: real time      0.2810


--------------------------------------------------------------------------------------------------------


 writing wavefunctions
     LOOP+:  cpu time    219.9175: real time    222.3545
    4ORBIT:  cpu time      0.0000: real time      0.0000

 total amount of memory used by VASP MPI-rank0    37861. kBytes
=======================================================================

   base      :      30000. kBytes
   nonlr-proj:       1201. kBytes
   fftplans  :        841. kBytes
   grid      :       1174. kBytes
   one-center:          9. kBytes
   wavefun   :       4636. kBytes
 
  
  
 General timing and accounting informations for this job:
 ========================================================
  
                  Total CPU time used (sec):      261.006
                            User time (sec):      260.814
                          System time (sec):        0.192
                         Elapsed time (sec):      265.583
  
                   Maximum memory used (kb):      211724.
                   Average memory used (kb):          N/A
  
                          Minor page faults:        19364
                          Major page faults:         7378
                 Voluntary context switches:         4347
