 vasp.6.4.2 20Jul23 (build Jun 27 2024 19:57:08) complex                        
  
 executed on                 T2A5 date 2026.01.14  02:02:52
 running   28 mpi-ranks, with    1 threads/rank, on    1 nodes
 distrk:  each k-point on   28 cores,    1 groups
 distr:  one band on NCORE=  28 cores,    1 groups


--------------------------------------------------------------------------------------------------------


 INCAR:
   ISTART = 1
   ICHARG = 1
   LWAVE = .T.
   LCHARG = .T.
   ENCUT = 250
   PREC = Normal
   ADDGRID = .F.
   EDIFF = 1E-4
   LREAL = Auto
   ALGO = Fast
   NSW = 0
   IBRION = -1
   ISMEAR = 0
   SIGMA = 0.1
   NPAR = 1
   KPAR = 1
   SYMPREC = 1E-4

 POTCAR:    PAW_PBE Si 05Jan2001                  
 POTCAR:    PAW_PBE Si 05Jan2001                  
   SHA256 =  79d9987ad8750f624c4d6acb2a16d13abf6a777132adc04dc6c8399be72b42bb Si/POTCAR             
   COPYR  = (c) Copyright 05Jan2001 Georg Kresse                                                    
   COPYR  = This file is part of the software VASP. Any use, copying, and all other rights are regul
   COPYR  = If you do not have a valid VASP license, you may not use, copy or distribute this file. 
   VRHFIN =Si: s2p2                                                                                 
   LEXCH  = PE                                                                                      
   EATOM  =   103.0669 eV,    7.5752 Ry                                                             
                                                                                                    
   TITEL  = PAW_PBE Si 05Jan2001                                                                    
   LULTRA =        F    use ultrasoft PP ?                                                          
   IUNSCR =        1    unscreen: 0-lin 1-nonlin 2-no                                               
   RPACOR =    1.500    partial core radius                                                         
   POMASS =   28.085; ZVAL   =    4.000    mass and valenz                                          
   RCORE  =    1.900    outmost cutoff radius                                                       
   RWIGS  =    2.480; RWIGS  =    1.312    wigner-seitz radius (au A)                               
   ENMAX  =  245.345; ENMIN  =  184.009 eV                                                          
   ICORE  =        2    local potential                                                             
   LCOR   =        T    correct aug charges                                                         
   LPAW   =        T    paw PP                                                                      
   EAUG   =  322.069                                                                                
   DEXC   =    0.000                                                                                
   RMAX   =    1.950    core radius for proj-oper                                                   
   RAUG   =    1.300    factor for augmentation sphere                                              
   RDEP   =    1.993    radius for radial grids                                                     
   RDEPT  =    1.837    core radius for aug-charge                                                  
                                                                                                    
   Atomic configuration                                                                             
    6 entries                                                                                       
     n  l   j            E        occ.                                                              
     1  0  0.50     -1785.8828   2.0000                                                             
     2  0  0.50      -139.4969   2.0000                                                             
     2  1  1.50       -95.5546   6.0000                                                             
     3  0  0.50       -10.8127   2.0000                                                             
     3  1  0.50        -4.0811   2.0000                                                             
     3  2  1.50        -4.0817   0.0000                                                             
   Description                                                                                      
     l       E           TYP  RCUT    TYP  RCUT                                                     
     0    -10.8127223     23  1.900                                                                 
     0     -7.6451159     23  1.900                                                                 
     1     -4.0811372     23  1.900                                                                 
     1      2.4879257     23  1.900                                                                 
     2     -4.0817478      7  1.900                                                                 
  local pseudopotential read in
  partial core-charges read in
  partial kinetic energy density read in
  atomic valenz-charges read in
  non local Contribution for L=           0  read in
    real space projection operators read in
  non local Contribution for L=           0  read in
    real space projection operators read in
  non local Contribution for L=           1  read in
    real space projection operators read in
  non local Contribution for L=           1  read in
    real space projection operators read in
    PAW grid and wavefunctions read in
 
   number of l-projection  operators is LMAX  =           4
   number of lm-projection operators is LMMAX =           8
 
 Optimization of the real space projectors (new method)

 maximal supplied QI-value         = 19.84
 optimisation between [QCUT,QGAM] = [  7.94, 16.07] = [ 17.64, 72.34] Ry 
 Optimized for a Real-space Cutoff    1.55 Angstroem

   l    n(q)    QCUT    max X(q) W(low)/X(q) W(high)/X(q)  e(spline) 
   0      7     7.937   159.560    0.97E-04    0.31E-03    0.13E-06
   0      7     7.937   115.863    0.95E-04    0.31E-03    0.13E-06
   1      7     7.937    88.339    0.40E-03    0.66E-03    0.12E-06
   1      7     7.937    48.592    0.39E-03    0.64E-03    0.12E-06
  PAW_PBE Si 05Jan2001                  :
 energy of atom  1       EATOM= -103.0669
 kinetic energy error for atom=    0.0052 (will be added to EATOM!!)
 
 
 POSCAR: Si
  positions in cartesian coordinates
  No initial velocities read in
 exchange correlation table for  LEXCH =        8
   RHO(1)=    0.500       N(1)  =     2000
   RHO(2)=  100.500       N(2)  =     4000
 


--------------------------------------------------------------------------------------------------------


 ion  position               nearest neighbor table
   1  0.999  0.001  0.009-  54 2.30  47 2.36   5 2.39  32 2.39
   2  0.247  0.249  0.001-   5 2.35  15 2.37  16 2.39   6 2.40
   3  0.256  0.998  0.253-   7 2.34  22 2.34  24 2.36   5 2.36
   4  0.997  0.254  0.252-   8 2.34  39 2.34  38 2.37   5 2.39
   5  0.129  0.126  0.133-   2 2.35   3 2.36   4 2.39   1 2.39
   6  0.373  0.380  0.124-  49 2.37   2 2.40  36 2.40  19 2.42
   7  0.386  0.122  0.369-   3 2.34  36 2.35  10 2.35  41 2.41
   8  0.119  0.376  0.380-   4 2.34  10 2.38  19 2.42  25 2.42
   9  0.995  0.005  0.500-  39 2.34  62 2.37  13 2.42  24 2.44
  10  0.254  0.243  0.488-   7 2.35   8 2.38  13 2.39  14 2.40
  11  0.264  0.002  0.756-  30 2.29  13 2.31  15 2.32  32 2.39
  12  0.017  0.254  0.740-  16 2.38  46 2.39  13 2.41  47 2.42
  13  0.143  0.114  0.625-  11 2.31  10 2.39  12 2.41   9 2.42
  14  0.371  0.368  0.627-  57 2.38  27 2.39  10 2.40  44 2.44
  15  0.381  0.125  0.885-  11 2.32   2 2.37  44 2.38  33 2.39
  16  0.127  0.383  0.878-  27 2.29  17 2.34  12 2.38   2 2.39
  17  0.003  0.509  1.000-  16 2.34  63 2.36  21 2.37  38 2.38
  18  0.253  0.757  0.000-  22 2.32  31 2.34  21 2.38  32 2.38
  19  0.246  0.506  0.255-  23 2.36   8 2.42  21 2.42   6 2.42
  20  0.987  0.759  0.247-  54 2.31  24 2.33  55 2.37  21 2.37
  21  0.122  0.638  0.127-  17 2.37  20 2.37  18 2.38  19 2.42
  22  0.378  0.877  0.124-  18 2.32   3 2.34  52 2.36  33 2.43
  23  0.372  0.631  0.380-  52 2.33  57 2.35  19 2.36  26 2.37
  24  0.119  0.876  0.367-  20 2.33   3 2.36  26 2.39   9 2.44
  25  0.995  0.507  0.507-  46 2.37  55 2.38  29 2.39   8 2.42
  26  0.245  0.757  0.502-  30 2.35  23 2.37  29 2.38  24 2.39
  27  0.255  0.499  0.758-  16 2.29  31 2.36  14 2.39  29 2.43
  28  0.001  0.761  0.751-  63 2.31  62 2.32  32 2.33  29 2.37
  29  0.125  0.629  0.632-  28 2.37  26 2.38  25 2.39  27 2.43
  30  0.371  0.875  0.629-  11 2.29  26 2.35  60 2.37  41 2.39
  31  0.376  0.630  0.879-  18 2.34  27 2.36  49 2.38  60 2.41
  32  0.125  0.881  0.876-  28 2.33  18 2.38  11 2.39   1 2.39
  33  0.517  0.998  0.000-  64 2.34  37 2.38  15 2.39  22 2.43
  34  0.760  0.250  0.997-  37 2.35  47 2.37  38 2.38  48 2.41
  35  0.747  0.002  0.254-  37 2.30  39 2.33  54 2.35  56 2.43
  36  0.504  0.249  0.242-   7 2.35  37 2.35  40 2.38   6 2.40
  37  0.638  0.128  0.126-  35 2.30  34 2.35  36 2.35  33 2.38
  38  0.877  0.383  0.124-   4 2.37  51 2.38  17 2.38  34 2.38
  39  0.873  0.127  0.372-  35 2.33   9 2.34   4 2.34  42 2.38
  40  0.620  0.373  0.380-  42 2.37  36 2.38  51 2.39  57 2.39
  41  0.505  0.001  0.511-  45 2.38  30 2.39  56 2.41   7 2.41
  42  0.746  0.246  0.503-  45 2.32  46 2.36  40 2.37  39 2.38
  43  0.764  0.002  0.760-  64 2.27  47 2.33  45 2.37  62 2.39
  44  0.508  0.248  0.758-  45 2.34  48 2.35  15 2.38  14 2.44
  45  0.634  0.125  0.637-  42 2.32  44 2.34  43 2.37  41 2.38
  46  0.873  0.371  0.624-  59 2.31  42 2.36  25 2.37  12 2.39
  47  0.892  0.130  0.873-  43 2.33   1 2.36  34 2.37  12 2.42
  48  0.628  0.381  0.877-  59 2.34  44 2.35  49 2.39  34 2.41
  49  0.504  0.507  0.005-  53 2.34   6 2.37  31 2.38  48 2.39
  50  0.744  0.753  0.001-  64 2.31  54 2.36  53 2.40  63 2.49
  51  0.750  0.498  0.258-  38 2.38  55 2.38  40 2.39  53 2.40
  52  0.495  0.754  0.257-  56 2.33  23 2.33  22 2.36  53 2.36
  53  0.623  0.628  0.135-  49 2.34  52 2.36  50 2.40  51 2.40
  54  0.868  0.882  0.123-   1 2.30  20 2.31  35 2.35  50 2.36
  55  0.870  0.633  0.380-  58 2.28  20 2.37  25 2.38  51 2.38
  56  0.625  0.868  0.382-  58 2.32  52 2.33  41 2.41  35 2.43
  57  0.492  0.500  0.503-  23 2.35  14 2.38  40 2.39  61 2.44
  58  0.752  0.749  0.505-  55 2.28  62 2.29  56 2.32  61 2.37
  59  0.761  0.495  0.753-  46 2.31  48 2.34  61 2.35  63 2.36
  60  0.505  0.756  0.751-  64 2.35  30 2.37  31 2.41  61 2.45
  61  0.634  0.618  0.630-  59 2.35  58 2.37  57 2.44  60 2.45
  62  0.874  0.873  0.622-  58 2.29  28 2.32   9 2.37  43 2.39
  63  0.883  0.631  0.868-  28 2.31  59 2.36  17 2.36  50 2.49
  64  0.637  0.879  0.868-  43 2.27  50 2.31  33 2.34  60 2.35
 
  LATTYP: Found a base centered monoclinic cell.
 ALAT       =    26.7433904225
 B/A-ratio  =     0.5776448946
 C/A-ratio  =     0.7071028047
 COS(beta)  =    -0.9427127331
  
  Lattice vectors:
  
 A1 = ( -10.9168914500,  -0.0079179400, -10.9224607200)
 A2 = (   0.0066938400,  10.9155266000, -10.9224607200)
 A3 = (  10.9156573100, -10.9155266000,  10.9224607200)


Analysis of symmetry for initial positions (statically):
=====================================================================
 Subroutine PRICEL returns:
 Original cell was already a primitive cell.
 

 Routine SETGRP: Setting up the symmetry group for a 
 base centered monoclinic supercell.


 Subroutine GETGRP returns: Found  1 space group operations
 (whereof  1 operations were pure point group operations)
 out of a pool of  4 trial point group operations.


The static configuration has the point symmetry C_1 .


Analysis of symmetry for dynamics (positions and initial velocities):
=====================================================================
 Subroutine PRICEL returns:
 Original cell was already a primitive cell.
 

 Routine SETGRP: Setting up the symmetry group for a 
 base centered monoclinic supercell.


 Subroutine GETGRP returns: Found  1 space group operations
 (whereof  1 operations were pure point group operations)
 out of a pool of  4 trial point group operations.


The dynamic configuration has the point symmetry C_1 .


 Subroutine INISYM returns: Found  1 space group operations
 (whereof  1 operations are pure point group operations),
 and found     1 'primitive' translations


----------------------------------------------------------------------------------------

                                     Primitive cell                                     

  volume of cell :    1303.1555

  direct lattice vectors                    reciprocal lattice vectors
    10.922351150  0.000000000  0.000000000     0.091555379 -0.000010344  0.000045772
     0.001234140 10.923444540  0.000000000     0.000000000  0.091546215 -0.000066364
    -0.005459700  0.007917940 10.922460720     0.000000000  0.000000000  0.091554461

  length of vectors
    10.922351150 10.923444610 10.922464954     0.091555391  0.091546239  0.091554461

  position of ions in fractional coordinates (direct lattice)
     0.999275036  0.001475260  0.009082651
     0.246878144  0.248834281  0.001253693
     0.256091167  0.997581911  0.252608808
     0.997135903  0.253988949  0.251835446
     0.128959273  0.126112165  0.133456197
     0.372732352  0.380268453  0.123540766
     0.386306124  0.121991441  0.369109158
     0.119017863  0.375504099  0.379775067
     0.995375440  0.005111682  0.500064796
     0.253963536  0.243403545  0.487820157
     0.264070634  0.001672021  0.756289165
     0.017376330  0.254429967  0.740267237
     0.142833519  0.114032016  0.624895934
     0.370887994  0.367653400  0.626813798
     0.380863227  0.124600827  0.884799806
     0.126840781  0.383328944  0.877569660
     0.003322875  0.509252078  0.999553986
     0.253390038  0.756768816  0.000395426
     0.246446215  0.506474488  0.255211599
     0.987155254  0.758997619  0.247314600
     0.121844936  0.638137588  0.127466195
     0.377966046  0.877078773  0.123676270
     0.371989978  0.630578360  0.380299954
     0.119422869  0.875748572  0.366998483
     0.994630079  0.507095261  0.506782750
     0.244667631  0.757225929  0.501710484
     0.254700865  0.499049102  0.757859832
     0.001221076  0.761409266  0.750713175
     0.125382030  0.629277595  0.632289180
     0.371288863  0.875115208  0.628928066
     0.376245007  0.630350124  0.879306308
     0.124978633  0.881352682  0.875631442
     0.517284025  0.998434574  0.000101326
     0.759954429  0.250216548  0.996783856
     0.746940726  0.002379556  0.254013369
     0.504055444  0.249457892  0.242302172
     0.638244659  0.128478437  0.125565924
     0.877398001  0.382685454  0.124191879
     0.873031321  0.126759906  0.372260927
     0.619792044  0.372653673  0.380344337
     0.505245587  0.001395185  0.511050486
     0.745556920  0.245902321  0.503087815
     0.764072075  0.002315851  0.760074623
     0.507554844  0.248332356  0.757870864
     0.633548337  0.124735291  0.637298835
     0.873424303  0.370666208  0.623924496
     0.891743645  0.130200322  0.873252653
     0.628373554  0.380963732  0.876860572
     0.503776030  0.506515443  0.004946572
     0.744256149  0.753343115  0.001323055
     0.750450249  0.497731307  0.257971662
     0.495467337  0.753617957  0.256717967
     0.622795109  0.628065394  0.134996572
     0.868087589  0.881781841  0.122931924
     0.870230460  0.632732498  0.379737140
     0.624603299  0.867821957  0.382349051
     0.491774515  0.500440982  0.503361785
     0.751600543  0.749393042  0.505134137
     0.760977026  0.495022180  0.752749603
     0.504701792  0.755765674  0.751258179
     0.633813006  0.617770446  0.630469068
     0.873956968  0.872967861  0.622316240
     0.882546112  0.630897698  0.868144249
     0.637034225  0.878837659  0.868463601

  ion indices of the primitive-cell ions
   primitive index   ion index
                 1           1
                 2           2
                 3           3
                 4           4
                 5           5
                 6           6
                 7           7
                 8           8
                 9           9
                10          10
                11          11
                12          12
                13          13
                14          14
                15          15
                16          16
                17          17
                18          18
                19          19
                20          20
                21          21
                22          22
                23          23
                24          24
                25          25
                26          26
                27          27
                28          28
                29          29
                30          30
                31          31
                32          32
                33          33
                34          34
                35          35
                36          36
                37          37
                38          38
                39          39
                40          40
                41          41
                42          42
                43          43
                44          44
                45          45
                46          46
                47          47
                48          48
                49          49
                50          50
                51          51
                52          52
                53          53
                54          54
                55          55
                56          56
                57          57
                58          58
                59          59
                60          60
                61          61
                62          62
                63          63
                64          64

----------------------------------------------------------------------------------------

 
 
 KPOINTS: K-Points                                

Automatic generation of k-mesh.
 Grid dimensions read from file:
 generate k-points for:    2    2    2

 Generating k-lattice:

  Cartesian coordinates                     Fractional coordinates (reciprocal lattice)
     0.045777690 -0.000005172  0.000022886     0.500000000  0.000000000 -0.000000000
     0.000000000  0.045773107 -0.000033182     0.000000000  0.500000000  0.000000000
     0.000000000  0.000000000  0.045777230     0.000000000  0.000000000  0.500000000

  Length of vectors
     0.045777696  0.045773119  0.045777230

  Shift w.r.t. Gamma in fractional coordinates (k-lattice)
     0.500000000  0.500000000  0.500000000

 
 Subroutine IBZKPT returns following result:
 ===========================================
 
 Found      4 irreducible k-points:
 
 Following reciprocal coordinates:
            Coordinates               Weight
  0.250000  0.250000  0.250000      2.000000
  0.250000  0.250000 -0.250000      2.000000
 -0.250000  0.250000  0.250000      2.000000
  0.250000 -0.250000  0.250000      2.000000
 
 Following cartesian coordinates:
            Coordinates               Weight
  0.022889  0.022884  0.022883      2.000000
  0.022889  0.022884 -0.022894      2.000000
 -0.022889  0.022889  0.022861      2.000000
  0.022889 -0.022889  0.022917      2.000000
 


--------------------------------------------------------------------------------------------------------




 Dimension of arrays:
   k-points           NKPTS =      4   k-points in BZ     NKDIM =      4   number of bands    NBANDS=    161
   number of dos      NEDOS =    301   number of ions     NIONS =     64
   non local maximal  LDIM  =      4   non local SUM 2l+1 LMDIM =      8
   total plane-waves  NPLWV =  74088
   max r-space proj   IRMAX =    939   max aug-charges    IRDMAX=   2100
   dimension x,y,z NGX =    42 NGY =   42 NGZ =   42
   dimension x,y,z NGXF=    84 NGYF=   84 NGZF=   84
   support grid    NGXF=    84 NGYF=   84 NGZF=   84
   ions per type =              64
   NGX,Y,Z   is equivalent  to a cutoff of   6.39,  6.39,  6.39 a.u.
   NGXF,Y,Z  is equivalent  to a cutoff of  12.79, 12.78, 12.79 a.u.

 SYSTEM =  unknown system                          
 POSCAR =  Si                                      

 Startparameter for this run:
   NWRITE =      2    write-flag & timer
   PREC   = normal    normal or accurate (medium, high low for compatibility)
   ISTART =      1    job   : 0-new  1-cont  2-samecut
   ICHARG =      1    charge: 1-file 2-atom 10-const
   ISPIN  =      1    spin polarized calculation?
   LNONCOLLINEAR =      F non collinear calculations
   LSORBIT =      F    spin-orbit coupling
   INIWAV =      1    electr: 0-lowe 1-rand  2-diag
   LASPH  =      F    aspherical Exc in radial PAW
 Electronic Relaxation 1
   ENCUT  =  250.0 eV  18.37 Ry    4.29 a.u.  14.08 14.08 14.08*2*pi/ulx,y,z
   ENINI  =  250.0     initial cutoff
   ENAUG  =  322.1 eV  augmentation charge cutoff
   NELM   =     60;   NELMIN=  2; NELMDL=  0     # of ELM steps 
   EDIFF  = 0.1E-03   stopping-criterion for ELM
   LREAL  =      T    real-space projection
   NLSPLINE    = F    spline interpolate recip. space projectors
   LCOMPAT=      F    compatible to vasp.4.4
   GGA_COMPAT  = T    GGA compatible to vasp.4.4-vasp.4.6
   LMAXPAW     = -100 max onsite density
   LMAXMIX     =    2 max onsite mixed and CHGCAR
   VOSKOWN=      0    Vosko Wilk Nusair interpolation
   ROPT   =   -0.00050
 Ionic relaxation
   EDIFFG = 0.1E-02   stopping-criterion for IOM
   NSW    =      0    number of steps for IOM
   NBLOCK =      1;   KBLOCK =      1    inner block; outer block 
   IBRION =     -1    ionic relax: 0-MD 1-quasi-New 2-CG
   NFREE  =      0    steps in history (QN), initial steepest desc. (CG)
   ISIF   =      2    stress and relaxation
   IWAVPR =     10    prediction:  0-non 1-charg 2-wave 3-comb
   ISYM   =      2    0-nonsym 1-usesym 2-fastsym
   LCORR  =      T    Harris-Foulkes like correction to forces

   POTIM  = 0.5000    time-step for ionic-motion
   TEIN   =    0.0    initial temperature
   TEBEG  =    0.0;   TEEND  =   0.0 temperature during run
   SMASS  =  -3.00    Nose mass-parameter (am)
   estimated Nose-frequenzy (Omega)   =  0.10E-29 period in steps = 0.13E+47 mass=  -0.273E-26a.u.
   SCALEE = 1.0000    scale energy and forces
   NPACO  =    256;   APACO  = 10.0  distance and # of slots for P.C.
   PSTRESS=    0.0 pullay stress

  Mass of Ions in am
   POMASS =  28.09
  Ionic Valenz
   ZVAL   =   4.00
  Atomic Wigner-Seitz radii
   RWIGS  =  -1.00
  virtual crystal weights 
   VCA    =   1.00
   NELECT =     256.0000    total number of electrons
   NUPDOWN=      -1.0000    fix difference up-down

 DOS related values:
   EMIN   =  10.00;   EMAX   =-10.00  energy-range for DOS
   EFERMI =   0.00;   METHOD = LEGACY      
   ISMEAR =     0;   SIGMA  =   0.10  broadening in eV -4-tet -1-fermi 0-gaus

 Electronic relaxation 2 (details)
   IALGO  =     68    algorithm
   LDIAG  =      T    sub-space diagonalisation (order eigenvalues)
   LSUBROT=      F    optimize rotation matrix (better conditioning)
   TURBO    =      0    0=normal 1=particle mesh
   IRESTART =      0    0=no restart 2=restart with 2 vectors
   NREBOOT  =      0    no. of reboots
   NMIN     =      0    reboot dimension
   EREF     =   0.00    reference energy to select bands
   IMIX   =      4    mixing-type and parameters
     AMIX     =   0.40;   BMIX     =  1.00
     AMIX_MAG =   1.60;   BMIX_MAG =  1.00
     AMIN     =   0.10
     WC   =   100.;   INIMIX=   1;  MIXPRE=   1;  MAXMIX= -45

 Intra band minimization:
   WEIMIN = 0.0000     energy-eigenvalue tresh-hold
   EBREAK =  0.16E-06  absolut break condition
   DEPER  =   0.30     relativ break condition  

   TIME   =   0.40     timestep for ELM

  volume/ion in A,a.u.               =      20.36       137.41
  Fermi-wavevector in a.u.,A,eV,Ry     =   0.951677  1.798408 12.322639  0.905688
  Thomas-Fermi vector in A             =   2.080169
 
 Write flags
   LWAVE        =      T    write WAVECAR
   LDOWNSAMPLE  =      F    k-point downsampling of WAVECAR
   LCHARG       =      T    write CHGCAR
   LVTOT        =      F    write LOCPOT, total local potential
   LVHAR        =      F    write LOCPOT, Hartree potential only
   LELF         =      F    write electronic localiz. function (ELF)
   LORBIT       =      0    0 simple, 1 ext, 2 COOP (PROOUT), +10 PAW based schemes


 Dipole corrections
   LMONO  =      F    monopole corrections only (constant potential shift)
   LDIPOL =      F    correct potential (dipole corrections)
   IDIPOL =      0    1-x, 2-y, 3-z, 4-all directions 
   EPSILON=  1.0000000 bulk dielectric constant

 Exchange correlation treatment:
   GGA     =    --    GGA type
   LEXCH   =     8    internal setting for exchange type
   LIBXC   =     F    Libxc                    
   VOSKOWN =     0    Vosko Wilk Nusair interpolation
   LHFCALC =     F    Hartree Fock is set to
   LHFONE  =     F    Hartree Fock one center treatment
   AEXX    =    0.0000 exact exchange contribution

 Linear response parameters
   LEPSILON=     F    determine dielectric tensor
   LRPA    =     F    only Hartree local field effects (RPA)
   LNABLA  =     F    use nabla operator in PAW spheres
   LVEL    =     F    velocity operator in full k-point grid
   CSHIFT  =0.1000    complex shift for real part using Kramers Kronig
   OMEGAMAX=  -1.0    maximum frequency
   DEG_THRESHOLD= 0.2000000E-02 threshold for treating states as degnerate
   RTIME   =   -0.100 relaxation time in fs
  (WPLASMAI=    0.000 imaginary part of plasma frequency in eV, 0.658/RTIME)
   DFIELD  = 0.0000000 0.0000000 0.0000000 field for delta impulse in time
 
  Optional k-point grid parameters
   LKPOINTS_OPT  =     F    use optional k-point grid
   KPOINTS_OPT_MODE=     1    mode for optional k-point grid
 
 Orbital magnetization related:
   ORBITALMAG=     F  switch on orbital magnetization
   LCHIMAG   =     F  perturbation theory with respect to B field
   DQ        =  0.001000  dq finite difference perturbation B field
   LLRAUG    =     F  two centre corrections for induced B field
   LBONE     =     F  B-component reconstruction in AE one-centre
   LVGVCALC  =     T  calculate vGv susceptibility
   LVGVAPPL  =     F  apply vGv susceptibility instead of pGv for G=0

 Random number generation:
   RANDOM_GENERATOR = DEFAULT
   PCG_SEED         = not used


--------------------------------------------------------------------------------------------------------


 Static calculation
 charge density and potential will be updated during run
 non-spin polarized calculation
 RMM-DIIS sequential band-by-band and
  variant of blocked Davidson during initial phase
 perform sub-space diagonalisation
    before iterative eigenvector-optimisation
 modified Broyden-mixing scheme, WC =      100.0
 initial mixing is a Kerker type mixing with AMIX =  0.4000 and BMIX =      1.0000
 Hartree-type preconditioning will be used
 using additional bands           33
 real space projection scheme for non local part
 use partial core corrections
 calculate Harris-corrections to forces 
   (improved forces if not selfconsistent)
 use gradient corrections 
 use of overlap-Matrix (Vanderbilt PP)
 Gauss-broadening in eV      SIGMA  =   0.10


--------------------------------------------------------------------------------------------------------


  energy-cutoff  :      250.00
  volume of cell :     1303.16
      direct lattice vectors                 reciprocal lattice vectors
    10.922351150  0.000000000  0.000000000     0.091555379 -0.000010344  0.000045772
     0.001234140 10.923444540  0.000000000     0.000000000  0.091546215 -0.000066364
    -0.005459700  0.007917940 10.922460720     0.000000000  0.000000000  0.091554461

  length of vectors
    10.922351150 10.923444610 10.922464954     0.091555391  0.091546239  0.091554461


 
 old parameters found on file WAVECAR:
  energy-cutoff  :      250.00
  volume of cell :     1301.64
      direct lattice vectors                 reciprocal lattice vectors
    10.918109000  0.000000000  0.000000000     0.091590952 -0.000008145  0.000048888
     0.000971040 10.919315130  0.000000000     0.000000000  0.091580835 -0.000068276
    -0.005827030  0.008139770 10.918136350     0.000000000  0.000000000  0.091590723

  length of vectors

 
 k-points in units of 2pi/SCALE and weight: K-Points                                
   0.02288884  0.02288397  0.02288347       0.250
   0.02288884  0.02288397 -0.02289376       0.250
  -0.02288884  0.02288914  0.02286058       0.250
   0.02288884 -0.02288914  0.02291665       0.250
 
 k-points in reciprocal lattice and weights: K-Points                                
   0.25000000  0.25000000  0.25000000       0.250
   0.25000000  0.25000000 -0.25000000       0.250
  -0.25000000  0.25000000  0.25000000       0.250
   0.25000000 -0.25000000  0.25000000       0.250
 
 position of ions in fractional coordinates (direct lattice) 
   0.99927504  0.00147526  0.00908265
   0.24687814  0.24883428  0.00125369
   0.25609117  0.99758191  0.25260881
   0.99713590  0.25398895  0.25183545
   0.12895927  0.12611217  0.13345620
   0.37273235  0.38026845  0.12354077
   0.38630612  0.12199144  0.36910916
   0.11901786  0.37550410  0.37977507
   0.99537544  0.00511168  0.50006480
   0.25396354  0.24340355  0.48782016
   0.26407063  0.00167202  0.75628917
   0.01737633  0.25442997  0.74026724
   0.14283352  0.11403202  0.62489593
   0.37088799  0.36765340  0.62681380
   0.38086323  0.12460083  0.88479981
   0.12684078  0.38332894  0.87756966
   0.00332287  0.50925208  0.99955399
   0.25339004  0.75676882  0.00039543
   0.24644621  0.50647449  0.25521160
   0.98715525  0.75899762  0.24731460
   0.12184494  0.63813759  0.12746620
   0.37796605  0.87707877  0.12367627
   0.37198998  0.63057836  0.38029995
   0.11942287  0.87574857  0.36699848
   0.99463008  0.50709526  0.50678275
   0.24466763  0.75722593  0.50171048
   0.25470087  0.49904910  0.75785983
   0.00122108  0.76140927  0.75071318
   0.12538203  0.62927760  0.63228918
   0.37128886  0.87511521  0.62892807
   0.37624501  0.63035012  0.87930631
   0.12497863  0.88135268  0.87563144
   0.51728402  0.99843457  0.00010133
   0.75995443  0.25021655  0.99678386
   0.74694073  0.00237956  0.25401337
   0.50405544  0.24945789  0.24230217
   0.63824466  0.12847844  0.12556592
   0.87739800  0.38268545  0.12419188
   0.87303132  0.12675991  0.37226093
   0.61979204  0.37265367  0.38034434
   0.50524559  0.00139518  0.51105049
   0.74555692  0.24590232  0.50308782
   0.76407208  0.00231585  0.76007462
   0.50755484  0.24833236  0.75787086
   0.63354834  0.12473529  0.63729883
   0.87342430  0.37066621  0.62392450
   0.89174364  0.13020032  0.87325265
   0.62837355  0.38096373  0.87686057
   0.50377603  0.50651544  0.00494657
   0.74425615  0.75334311  0.00132306
   0.75045025  0.49773131  0.25797166
   0.49546734  0.75361796  0.25671797
   0.62279511  0.62806539  0.13499657
   0.86808759  0.88178184  0.12293192
   0.87023046  0.63273250  0.37973714
   0.62460330  0.86782196  0.38234905
   0.49177452  0.50044098  0.50336179
   0.75160054  0.74939304  0.50513414
   0.76097703  0.49502218  0.75274960
   0.50470179  0.75576567  0.75125818
   0.63381301  0.61777045  0.63046907
   0.87395697  0.87296786  0.62231624
   0.88254611  0.63089770  0.86814425
   0.63703423  0.87883766  0.86846360
 
 position of ions in cartesian coordinates  (Angst):
  10.91438507  0.01618684  0.09920490
   2.69679003  2.71813739  0.01369341
   2.79696964 10.89903082  2.75910978
  10.89000699  2.77642822  2.75066277
   1.40796547  1.37863594  1.45767007
   4.07090844  4.15481954  1.34936916
   4.21750647  1.33548932  4.03158028
   1.29834486  4.10480524  4.14807825
  10.86911619  0.05979666  5.46193809
   2.77151596  2.66266766  5.32819650
   2.88014514  0.02425248  8.26053870
   0.18606274  2.78511302  8.08553982
   1.55680684  1.25057029  6.82540129
   4.04800043  4.02100460  6.84634909
   4.15524494  1.36807602  9.66419113
   1.38108137  4.19422100  9.58522014
   0.03146483  5.57070124 10.91758915
   2.76854677  8.26652532  0.00431902
   2.69100378  5.53446673  2.78753867
  10.78164277  8.29282662  2.70128400
   1.33092480  6.97166982  1.39224451
   4.12868508  9.58170060  1.35084920
   4.06170706  6.89109894  4.15381131
   1.30345560  9.56909683  4.00852651
  10.86155793  5.54323964  5.53531468
   2.67054112  8.27548795  5.47991305
   2.77841050  5.45733588  8.27769425
   0.01017804  8.32315599  8.19963517
   1.36679107  6.87888534  6.90615373
   4.05299360  9.56425225  6.86944210
   4.10545728  6.89255692  9.60418861
   1.36136754  9.63434034  9.56405003
   5.65118942 10.90634550  0.00110673
   8.29535579  2.74111906 10.88733251
   8.15696500  0.02800421  2.77445105
   5.50445553  2.72685798  2.64653596
   6.97060529  1.40442130  1.37148887
   9.58304330  4.18122668  1.35648092
   9.53367866  1.38760234  4.06600535
   6.76796968  4.07367327  4.15429608
   5.51568126  0.01928669  5.58192886
   8.14079125  2.69008379  5.49495690
   8.34131659  0.03131529  8.30188521
   5.53986096  2.71864549  8.27781474
   6.91651189  1.36758513  6.96087149
   9.53689795  4.05389196  6.81479080
   9.73533021  1.42915036  9.53806780
   6.85899938  4.16837913  9.57747516
   5.50301680  5.53293252  0.05402874
   8.12994951  8.22911221  0.01445102
   8.19588696  5.43898293  2.81768535
   5.41119670  8.23413664  2.80399191
   6.80242496  6.86170639  1.47449476
   9.48197455  9.63306840  1.34271911
   9.50367030  6.91462509  4.14766400
   6.82112006  9.48263243  4.17619249
   5.36920335  5.47052490  5.49794933
   8.20741203  8.18995295  5.51730777
   8.30815944  5.41330756  8.22187797
   5.50936127  8.26151284  8.20558795
   6.92004846  6.75317322  6.88627363
   9.54334460  9.54074348  6.79722469
   9.63551735  6.89844993  9.48227146
   6.95425456  9.60681087  9.48575957
 


--------------------------------------------------------------------------------------------------------


 k-point   1 :   0.2500 0.2500 0.2500  plane waves:   11700
 k-point   2 :   0.2500 0.2500-0.2500  plane waves:   11698
 k-point   3 :  -0.2500 0.2500 0.2500  plane waves:   11701
 k-point   4 :   0.2500-0.2500 0.2500  plane waves:   11699

 maximum and minimum number of plane-waves per node :       441      399

 maximum number of plane-waves:     11701
 maximum index in each direction: 
   IXMAX=   14   IYMAX=   14   IZMAX=   14
   IXMIN=  -14   IYMIN=  -14   IZMIN=  -14


 real space projection operators:
  total allocation   :       3450.50 KBytes
  max/ min on nodes  :        171.44         74.94


 parallel 3D FFT for wavefunctions:
    minimum data exchange during FFTs selected (reduces bandwidth)
 parallel 3D FFT for charge:
    minimum data exchange during FFTs selected (reduces bandwidth)


 total amount of memory used by VASP MPI-rank0    37842. kBytes
=======================================================================

   base      :      30000. kBytes
   nonlr-proj:       1192. kBytes
   fftplans  :        841. kBytes
   grid      :       1174. kBytes
   one-center:          9. kBytes
   wavefun   :       4626. kBytes
 
     INWAV:  cpu time     11.5896: real time     11.6152
 Broyden mixing: mesh for mixing (old mesh)
   NGX = 29   NGY = 29   NGZ = 29
  (NGX  = 84   NGY  = 84   NGZ  = 84)
  gives a total of  24389 points

 initial charge density was supplied:
 number of electron     255.9999987 magnetization 
 keeping initial charge density in first step


--------------------------------------------------------------------------------------------------------


 Maximum index for non-local projection operator          114
 Maximum index for augmentation-charges          184 (set IRDMAX)


--------------------------------------------------------------------------------------------------------


 First call to EWALD:  gamma=   0.162
 Maximum number of real-space cells 3x 3x 3
 Maximum number of reciprocal cells 3x 3x 3

    FEWALD:  cpu time      0.0342: real time      0.0342


--------------------------------------- Ionic step        1  -------------------------------------------




--------------------------------------- Iteration      1(   1)  ---------------------------------------


    POTLOK:  cpu time      0.2968: real time      0.3303
    SETDIJ:  cpu time      0.1065: real time      0.1068
     EDDAV:  cpu time     41.9452: real time     42.0396
       DOS:  cpu time      0.0138: real time      0.0138
    CHARGE:  cpu time      1.2296: real time      1.2323
    MIXING:  cpu time      0.1788: real time      0.1792
    --------------------------------------------
      LOOP:  cpu time     43.7707: real time     43.9021

 eigenvalue-minimisations  :  1390
 total energy-change (2. order) :-0.3450431E+03  (-0.1520758E+00)
 number of electron     255.9999988 magnetization 
 augmentation part      -14.6424686 magnetization 

 Broyden mixing:
  rms(total) = 0.62452E-01    rms(broyden)= 0.62447E-01
  rms(prec ) = 0.65743E-01
  weight for this iteration     100.00

 Free energy of the ion-electron system (eV)
  ---------------------------------------------------
  alpha Z        PSCENC =       105.80793001
  Ewald energy   TEWEN  =     -7270.34706575
  -Hartree energ DENC   =      -484.53376375
  -exchange      EXHF   =         0.00000000
  -V(xc)+E(xc)   XCENC  =      -577.34912325
  PAW double counting   =     31095.02597260   -29975.92723423
  entropy T*S    EENTRO =        -0.00000000
  eigenvalues    EBANDS =       166.32825689
  atomic energy  EATOM  =      6595.95197522
  Solvation  Ediel_sol  =         0.00000000
  ---------------------------------------------------
  free energy    TOTEN  =      -345.04305226 eV

  energy without entropy =     -345.04305226  energy(sigma->0) =     -345.04305226


--------------------------------------------------------------------------------------------------------




--------------------------------------- Iteration      1(   2)  ---------------------------------------


    POTLOK:  cpu time      0.0797: real time      0.0813
    SETDIJ:  cpu time      0.0019: real time      0.0019
    EDDIAG:  cpu time      7.5606: real time      7.5774
  RMM-DIIS:  cpu time     20.9086: real time     20.9554
    ORTHCH:  cpu time      0.3557: real time      0.3565
       DOS:  cpu time      0.1344: real time      0.1347
    CHARGE:  cpu time      2.5541: real time      2.5600
    MIXING:  cpu time      0.0891: real time      0.0893
    --------------------------------------------
      LOOP:  cpu time     31.6841: real time     31.7564

 eigenvalue-minimisations  :  1304
 total energy-change (2. order) :-0.7399653E-02  (-0.8116958E-02)
 number of electron     255.9999988 magnetization 
 augmentation part      -14.6445157 magnetization 

 Broyden mixing:
  rms(total) = 0.23759E-01    rms(broyden)= 0.23757E-01
  rms(prec ) = 0.28084E-01
  weight for this iteration     100.00

 eigenvalues of (default mixing * dielectric matrix)
  average eigenvalue GAMMA=   1.3334
  1.3334

 Free energy of the ion-electron system (eV)
  ---------------------------------------------------
  alpha Z        PSCENC =       105.80793001
  Ewald energy   TEWEN  =     -7270.34706575
  -Hartree energ DENC   =      -484.75445126
  -exchange      EXHF   =         0.00000000
  -V(xc)+E(xc)   XCENC  =      -577.34597704
  PAW double counting   =     31054.96575771   -29935.85411583
  entropy T*S    EENTRO =        -0.00000000
  eigenvalues    EBANDS =       166.52549503
  atomic energy  EATOM  =      6595.95197522
  Solvation  Ediel_sol  =         0.00000000
  ---------------------------------------------------
  free energy    TOTEN  =      -345.05045192 eV

  energy without entropy =     -345.05045192  energy(sigma->0) =     -345.05045192


--------------------------------------------------------------------------------------------------------




--------------------------------------- Iteration      1(   3)  ---------------------------------------


    POTLOK:  cpu time      0.2174: real time      0.2179
    SETDIJ:  cpu time      0.1135: real time      0.1137
    EDDIAG:  cpu time      5.6496: real time      5.6624
  RMM-DIIS:  cpu time     21.9964: real time     22.0455
    ORTHCH:  cpu time      0.4641: real time      0.4652
       DOS:  cpu time      0.0312: real time      0.6231
    CHARGE:  cpu time      2.2698: real time      2.2756
    MIXING:  cpu time      0.0731: real time      0.0733
    --------------------------------------------
      LOOP:  cpu time     30.8149: real time     31.4766

 eigenvalue-minimisations  :  1511
 total energy-change (2. order) :-0.7540737E-03  (-0.1273474E-02)
 number of electron     255.9999988 magnetization 
 augmentation part      -14.6439990 magnetization 

 Broyden mixing:
  rms(total) = 0.11155E-01    rms(broyden)= 0.11154E-01
  rms(prec ) = 0.13392E-01
  weight for this iteration     100.00

 eigenvalues of (default mixing * dielectric matrix)
  average eigenvalue GAMMA=   1.6869
  1.6869  1.6869

 Free energy of the ion-electron system (eV)
  ---------------------------------------------------
  alpha Z        PSCENC =       105.80793001
  Ewald energy   TEWEN  =     -7270.34706575
  -Hartree energ DENC   =      -484.97187515
  -exchange      EXHF   =         0.00000000
  -V(xc)+E(xc)   XCENC  =      -577.34134711
  PAW double counting   =     31014.49008074   -29895.36948549
  entropy T*S    EENTRO =        -0.00000000
  eigenvalues    EBANDS =       166.72858154
  atomic energy  EATOM  =      6595.95197522
  Solvation  Ediel_sol  =         0.00000000
  ---------------------------------------------------
  free energy    TOTEN  =      -345.05120599 eV

  energy without entropy =     -345.05120599  energy(sigma->0) =     -345.05120599


--------------------------------------------------------------------------------------------------------




--------------------------------------- Iteration      1(   4)  ---------------------------------------


    POTLOK:  cpu time      0.0737: real time      0.0751
    SETDIJ:  cpu time      0.0019: real time      0.0019
    EDDIAG:  cpu time      6.4373: real time      6.4545
  RMM-DIIS:  cpu time     25.1607: real time     25.2266
    ORTHCH:  cpu time      0.2805: real time      0.2812
       DOS:  cpu time      0.0647: real time      0.0649
    CHARGE:  cpu time      2.3736: real time      2.3800
    MIXING:  cpu time      0.0322: real time      0.0323
    --------------------------------------------
      LOOP:  cpu time     34.4245: real time     34.5164

 eigenvalue-minimisations  :  1562
 total energy-change (2. order) :-0.6825014E-04  (-0.2345150E-03)
 number of electron     255.9999988 magnetization 
 augmentation part      -14.6436400 magnetization 

 Broyden mixing:
  rms(total) = 0.49532E-02    rms(broyden)= 0.49529E-02
  rms(prec ) = 0.55093E-02
  weight for this iteration     100.00

 eigenvalues of (default mixing * dielectric matrix)
  average eigenvalue GAMMA=   1.7700
  1.0363  2.3370  1.9367

 Free energy of the ion-electron system (eV)
  ---------------------------------------------------
  alpha Z        PSCENC =       105.80793001
  Ewald energy   TEWEN  =     -7270.34706575
  -Hartree energ DENC   =      -485.08294271
  -exchange      EXHF   =         0.00000000
  -V(xc)+E(xc)   XCENC  =      -577.34264018
  PAW double counting   =     30987.64766663   -29868.51839175
  entropy T*S    EENTRO =        -0.00000000
  eigenvalues    EBANDS =       166.83219429
  atomic energy  EATOM  =      6595.95197522
  Solvation  Ediel_sol  =         0.00000000
  ---------------------------------------------------
  free energy    TOTEN  =      -345.05127424 eV

  energy without entropy =     -345.05127424  energy(sigma->0) =     -345.05127424


--------------------------------------------------------------------------------------------------------




--------------------------------------- Iteration      1(   5)  ---------------------------------------


    POTLOK:  cpu time      0.4177: real time      0.4187
    SETDIJ:  cpu time      0.0419: real time      0.0420
    EDDIAG:  cpu time      7.2577: real time      7.2772
  RMM-DIIS:  cpu time     15.0043: real time     15.0441
    ORTHCH:  cpu time      0.4305: real time      0.4316
       DOS:  cpu time      0.1307: real time      0.1310
    --------------------------------------------
      LOOP:  cpu time     23.2827: real time     23.3446

 eigenvalue-minimisations  :  1212
 total energy-change (2. order) :-0.2466371E-04  (-0.4268626E-04)
 number of electron     255.9999988 magnetization 
 augmentation part      -14.6436400 magnetization 

 Free energy of the ion-electron system (eV)
  ---------------------------------------------------
  alpha Z        PSCENC =       105.80793001
  Ewald energy   TEWEN  =     -7270.34706575
  -Hartree energ DENC   =      -485.12165435
  -exchange      EXHF   =         0.00000000
  -V(xc)+E(xc)   XCENC  =      -577.34415790
  PAW double counting   =     30980.79555950   -29861.66148827
  entropy T*S    EENTRO =        -0.00000000
  eigenvalues    EBANDS =       166.86760263
  atomic energy  EATOM  =      6595.95197522
  Solvation  Ediel_sol  =         0.00000000
  ---------------------------------------------------
  free energy    TOTEN  =      -345.05129891 eV

  energy without entropy =     -345.05129891  energy(sigma->0) =     -345.05129891


--------------------------------------------------------------------------------------------------------




 average (electrostatic) potential at core
  the test charge radii are     0.9892
  (the norm of the test charge is              1.0000)
       1 -83.4383       2 -83.4673       3 -83.4402       4 -83.4349       5 -83.4483
       6 -83.4536       7 -83.4454       8 -83.4429       9 -83.4809      10 -83.4360
      11 -83.4463      12 -83.5031      13 -83.4862      14 -83.4504      15 -83.4762
      16 -83.4139      17 -83.4272      18 -83.4362      19 -83.4680      20 -83.4475
      21 -83.4324      22 -83.4632      23 -83.4005      24 -83.4617      25 -83.4495
      26 -83.4653      27 -83.4456      28 -83.4330      29 -83.4349      30 -83.4418
      31 -83.4352      32 -83.4777      33 -83.4549      34 -83.4498      35 -83.4509
      36 -83.4140      37 -83.4215      38 -83.4667      39 -83.4603      40 -83.4374
      41 -83.4760      42 -83.4381      43 -83.4511      44 -83.4478      45 -83.4456
      46 -83.4319      47 -83.4671      48 -83.4502      49 -83.4101      50 -83.4855
      51 -83.4872      52 -83.4364      53 -83.4576      54 -83.4222      55 -83.4407
      56 -83.5071      57 -83.4256      58 -83.4186      59 -83.4318      60 -83.4920
      61 -83.4620      62 -83.4588      63 -83.4731      64 -83.4227
 
 
 
 E-fermi :   5.9035     XC(G=0):  -9.3487     alpha+bet :-11.7792

 Fermi energy:         5.9035115197

 k-point     1 :       0.2500    0.2500    0.2500
  band No.  band energies     occupation 
      1      -6.0069      2.00000
      2      -5.4985      2.00000
      3      -5.4682      2.00000
      4      -5.4534      2.00000
      5      -4.9855      2.00000
      6      -4.9735      2.00000
      7      -4.9303      2.00000
      8      -4.5286      2.00000
      9      -4.4689      2.00000
     10      -4.4311      2.00000
     11      -4.4129      2.00000
     12      -4.0700      2.00000
     13      -4.0589      2.00000
     14      -4.0294      2.00000
     15      -4.0113      2.00000
     16      -3.9626      2.00000
     17      -3.9503      2.00000
     18      -3.8366      2.00000
     19      -3.7777      2.00000
     20      -3.7328      2.00000
     21      -3.3296      2.00000
     22      -3.2959      2.00000
     23      -3.2798      2.00000
     24      -3.0017      2.00000
     25      -2.9683      2.00000
     26      -2.9031      2.00000
     27      -2.8144      2.00000
     28      -2.7976      2.00000
     29      -2.7536      2.00000
     30      -2.7318      2.00000
     31      -2.7123      2.00000
     32      -2.6940      2.00000
     33      -1.2829      2.00000
     34      -1.2759      2.00000
     35      -1.2363      2.00000
     36      -1.2288      2.00000
     37      -1.2116      2.00000
     38      -1.1962      2.00000
     39      -1.1375      2.00000
     40      -1.1219      2.00000
     41      -1.0951      2.00000
     42      -1.0383      2.00000
     43      -0.9967      2.00000
     44      -0.9739      2.00000
     45      -0.9610      2.00000
     46      -0.9342      2.00000
     47      -0.9072      2.00000
     48      -0.2604      2.00000
     49      -0.1648      2.00000
     50      -0.1565      2.00000
     51      -0.1364      2.00000
     52      -0.1273      2.00000
     53      -0.0989      2.00000
     54      -0.0652      2.00000
     55       0.7026      2.00000
     56       0.7185      2.00000
     57       0.7557      2.00000
     58       1.0479      2.00000
     59       1.0709      2.00000
     60       1.0806      2.00000
     61       1.6308      2.00000
     62       1.6514      2.00000
     63       1.6568      2.00000
     64       1.6780      2.00000
     65       1.6857      2.00000
     66       1.7044      2.00000
     67       1.7377      2.00000
     68       1.7535      2.00000
     69       1.7613      2.00000
     70       2.2374      2.00000
     71       2.2512      2.00000
     72       2.2792      2.00000
     73       2.3429      2.00000
     74       2.3596      2.00000
     75       2.3722      2.00000
     76       2.3829      2.00000
     77       2.4026      2.00000
     78       2.4256      2.00000
     79       2.4784      2.00000
     80       2.4893      2.00000
     81       2.5143      2.00000
     82       2.7164      2.00000
     83       2.7359      2.00000
     84       2.7484      2.00000
     85       2.7647      2.00000
     86       2.7761      2.00000
     87       2.8008      2.00000
     88       2.9879      2.00000
     89       3.0136      2.00000
     90       3.0400      2.00000
     91       3.0484      2.00000
     92       3.0717      2.00000
     93       3.1082      2.00000
     94       3.3054      2.00000
     95       3.3309      2.00000
     96       3.3505      2.00000
     97       3.3943      2.00000
     98       3.4169      2.00000
     99       3.4539      2.00000
    100       3.5021      2.00000
    101       3.5180      2.00000
    102       3.5268      2.00000
    103       3.6825      2.00000
    104       3.7403      2.00000
    105       3.7621      2.00000
    106       3.7901      2.00000
    107       3.8055      2.00000
    108       3.8156      2.00000
    109       3.8345      2.00000
    110       3.8520      2.00000
    111       3.8643      2.00000
    112       4.0525      2.00000
    113       4.1464      2.00000
    114       4.1655      2.00000
    115       4.1893      2.00000
    116       4.3851      2.00000
    117       4.3940      2.00000
    118       4.4158      2.00000
    119       4.4208      2.00000
    120       4.4361      2.00000
    121       4.4728      2.00000
    122       4.5946      2.00000
    123       4.6380      2.00000
    124       4.9337      2.00000
    125       4.9467      2.00000
    126       4.9670      2.00000
    127       5.3988      2.00000
    128       5.4346      2.00000
    129       6.5412      0.00000
    130       6.5918      0.00000
    131       6.6221      0.00000
    132       7.0035      0.00000
    133       7.0131      0.00000
    134       7.0443      0.00000
    135       7.2397      0.00000
    136       7.4759      0.00000
    137       7.4988      0.00000
    138       7.5179      0.00000
    139       7.5512      0.00000
    140       7.6236      0.00000
    141       7.6404      0.00000
    142       7.7520      0.00000
    143       7.7808      0.00000
    144       7.7987      0.00000
    145       7.8180      0.00000
    146       7.8275      0.00000
    147       7.8455      0.00000
    148       7.9824      0.00000
    149       7.9950      0.00000
    150       8.0272      0.00000
    151       8.0417      0.00000
    152       8.0796      0.00000
    153       8.1091      0.00000
    154       8.1250      0.00000
    155       8.3061      0.00000
    156       8.3131      0.00000
    157       8.3336      0.00000
    158       8.4071      0.00000
    159       8.4672      0.00000
    160       8.5015      0.00000
    161       8.5225      0.00000

 k-point     2 :       0.2500    0.2500   -0.2500
  band No.  band energies     occupation 
      1      -6.0076      2.00000
      2      -5.4932      2.00000
      3      -5.4738      2.00000
      4      -5.4486      2.00000
      5      -4.9843      2.00000
      6      -4.9688      2.00000
      7      -4.9481      2.00000
      8      -4.5361      2.00000
      9      -4.4589      2.00000
     10      -4.4363      2.00000
     11      -4.4027      2.00000
     12      -4.0696      2.00000
     13      -4.0404      2.00000
     14      -4.0134      2.00000
     15      -4.0035      2.00000
     16      -3.9826      2.00000
     17      -3.9620      2.00000
     18      -3.8320      2.00000
     19      -3.7773      2.00000
     20      -3.7483      2.00000
     21      -3.3302      2.00000
     22      -3.3074      2.00000
     23      -3.2816      2.00000
     24      -2.9809      2.00000
     25      -2.9588      2.00000
     26      -2.9251      2.00000
     27      -2.7989      2.00000
     28      -2.7733      2.00000
     29      -2.7591      2.00000
     30      -2.7384      2.00000
     31      -2.7204      2.00000
     32      -2.7083      2.00000
     33      -1.2969      2.00000
     34      -1.2657      2.00000
     35      -1.2513      2.00000
     36      -1.2361      2.00000
     37      -1.2201      2.00000
     38      -1.1948      2.00000
     39      -1.1582      2.00000
     40      -1.1165      2.00000
     41      -1.0744      2.00000
     42      -1.0391      2.00000
     43      -1.0116      2.00000
     44      -0.9667      2.00000
     45      -0.9341      2.00000
     46      -0.9167      2.00000
     47      -0.8963      2.00000
     48      -0.2415      2.00000
     49      -0.1782      2.00000
     50      -0.1709      2.00000
     51      -0.1383      2.00000
     52      -0.1282      2.00000
     53      -0.1020      2.00000
     54      -0.0777      2.00000
     55       0.7175      2.00000
     56       0.7350      2.00000
     57       0.7482      2.00000
     58       1.0363      2.00000
     59       1.0792      2.00000
     60       1.0909      2.00000
     61       1.6206      2.00000
     62       1.6472      2.00000
     63       1.6629      2.00000
     64       1.6731      2.00000
     65       1.6912      2.00000
     66       1.6930      2.00000
     67       1.7198      2.00000
     68       1.7415      2.00000
     69       1.7593      2.00000
     70       2.2406      2.00000
     71       2.2693      2.00000
     72       2.2884      2.00000
     73       2.3138      2.00000
     74       2.3562      2.00000
     75       2.3750      2.00000
     76       2.3835      2.00000
     77       2.4000      2.00000
     78       2.4206      2.00000
     79       2.4638      2.00000
     80       2.4986      2.00000
     81       2.5105      2.00000
     82       2.7215      2.00000
     83       2.7360      2.00000
     84       2.7503      2.00000
     85       2.7614      2.00000
     86       2.7816      2.00000
     87       2.8113      2.00000
     88       2.9869      2.00000
     89       3.0136      2.00000
     90       3.0288      2.00000
     91       3.0534      2.00000
     92       3.0723      2.00000
     93       3.0849      2.00000
     94       3.3283      2.00000
     95       3.3528      2.00000
     96       3.3893      2.00000
     97       3.4099      2.00000
     98       3.4247      2.00000
     99       3.4493      2.00000
    100       3.4926      2.00000
    101       3.5073      2.00000
    102       3.5276      2.00000
    103       3.7165      2.00000
    104       3.7465      2.00000
    105       3.7680      2.00000
    106       3.7866      2.00000
    107       3.7990      2.00000
    108       3.8086      2.00000
    109       3.8327      2.00000
    110       3.8429      2.00000
    111       3.8695      2.00000
    112       4.0739      2.00000
    113       4.1290      2.00000
    114       4.1536      2.00000
    115       4.1726      2.00000
    116       4.3617      2.00000
    117       4.3834      2.00000
    118       4.4043      2.00000
    119       4.4394      2.00000
    120       4.4711      2.00000
    121       4.4794      2.00000
    122       4.5894      2.00000
    123       4.6412      2.00000
    124       4.9099      2.00000
    125       4.9412      2.00000
    126       4.9687      2.00000
    127       5.3783      2.00000
    128       5.4347      2.00000
    129       6.5369      0.00000
    130       6.5765      0.00000
    131       6.5951      0.00000
    132       6.9970      0.00000
    133       7.0190      0.00000
    134       7.0433      0.00000
    135       7.2346      0.00000
    136       7.4646      0.00000
    137       7.4813      0.00000
    138       7.5219      0.00000
    139       7.5854      0.00000
    140       7.6061      0.00000
    141       7.6395      0.00000
    142       7.7670      0.00000
    143       7.7836      0.00000
    144       7.7981      0.00000
    145       7.8089      0.00000
    146       7.8332      0.00000
    147       7.8511      0.00000
    148       7.9858      0.00000
    149       8.0140      0.00000
    150       8.0455      0.00000
    151       8.0562      0.00000
    152       8.0799      0.00000
    153       8.1054      0.00000
    154       8.1090      0.00000
    155       8.3090      0.00000
    156       8.3237      0.00000
    157       8.3405      0.00000
    158       8.4173      0.00000
    159       8.4496      0.00000
    160       8.4819      0.00000
    161       8.5447      0.00000

 k-point     3 :      -0.2500    0.2500    0.2500
  band No.  band energies     occupation 
      1      -6.0082      2.00000
      2      -5.4889      2.00000
      3      -5.4758      2.00000
      4      -5.4485      2.00000
      5      -4.9877      2.00000
      6      -4.9641      2.00000
      7      -4.9498      2.00000
      8      -4.5389      2.00000
      9      -4.4596      2.00000
     10      -4.4393      2.00000
     11      -4.4096      2.00000
     12      -4.0706      2.00000
     13      -4.0421      2.00000
     14      -4.0387      2.00000
     15      -4.0072      2.00000
     16      -3.9732      2.00000
     17      -3.9252      2.00000
     18      -3.8203      2.00000
     19      -3.7828      2.00000
     20      -3.7304      2.00000
     21      -3.3280      2.00000
     22      -3.3205      2.00000
     23      -3.3016      2.00000
     24      -3.0019      2.00000
     25      -2.9501      2.00000
     26      -2.9109      2.00000
     27      -2.8217      2.00000
     28      -2.7916      2.00000
     29      -2.7682      2.00000
     30      -2.7331      2.00000
     31      -2.7035      2.00000
     32      -2.6759      2.00000
     33      -1.3003      2.00000
     34      -1.2771      2.00000
     35      -1.2507      2.00000
     36      -1.2285      2.00000
     37      -1.2198      2.00000
     38      -1.2098      2.00000
     39      -1.1537      2.00000
     40      -1.1192      2.00000
     41      -1.0784      2.00000
     42      -1.0460      2.00000
     43      -1.0242      2.00000
     44      -0.9830      2.00000
     45      -0.9249      2.00000
     46      -0.8833      2.00000
     47      -0.8649      2.00000
     48      -0.2155      2.00000
     49      -0.1884      2.00000
     50      -0.1765      2.00000
     51      -0.1536      2.00000
     52      -0.1283      2.00000
     53      -0.1165      2.00000
     54      -0.0885      2.00000
     55       0.7065      2.00000
     56       0.7560      2.00000
     57       0.7768      2.00000
     58       1.0377      2.00000
     59       1.0691      2.00000
     60       1.0910      2.00000
     61       1.6273      2.00000
     62       1.6483      2.00000
     63       1.6617      2.00000
     64       1.6696      2.00000
     65       1.6845      2.00000
     66       1.6904      2.00000
     67       1.7277      2.00000
     68       1.7358      2.00000
     69       1.7567      2.00000
     70       2.2430      2.00000
     71       2.2736      2.00000
     72       2.2860      2.00000
     73       2.3379      2.00000
     74       2.3493      2.00000
     75       2.3676      2.00000
     76       2.3797      2.00000
     77       2.3956      2.00000
     78       2.3990      2.00000
     79       2.4518      2.00000
     80       2.4753      2.00000
     81       2.5095      2.00000
     82       2.7238      2.00000
     83       2.7371      2.00000
     84       2.7496      2.00000
     85       2.7694      2.00000
     86       2.7874      2.00000
     87       2.8103      2.00000
     88       2.9915      2.00000
     89       2.9984      2.00000
     90       3.0257      2.00000
     91       3.0409      2.00000
     92       3.0489      2.00000
     93       3.0665      2.00000
     94       3.3374      2.00000
     95       3.3692      2.00000
     96       3.3935      2.00000
     97       3.3970      2.00000
     98       3.4522      2.00000
     99       3.4816      2.00000
    100       3.4957      2.00000
    101       3.5057      2.00000
    102       3.5330      2.00000
    103       3.7201      2.00000
    104       3.7453      2.00000
    105       3.7713      2.00000
    106       3.7851      2.00000
    107       3.8050      2.00000
    108       3.8316      2.00000
    109       3.8400      2.00000
    110       3.8490      2.00000
    111       3.8778      2.00000
    112       4.0848      2.00000
    113       4.1158      2.00000
    114       4.1555      2.00000
    115       4.1755      2.00000
    116       4.3674      2.00000
    117       4.3723      2.00000
    118       4.3913      2.00000
    119       4.4527      2.00000
    120       4.4840      2.00000
    121       4.5086      2.00000
    122       4.5905      2.00000
    123       4.6203      2.00000
    124       4.8989      2.00000
    125       4.9298      2.00000
    126       4.9539      2.00000
    127       5.3674      2.00000
    128       5.4129      2.00000
    129       6.5155      0.00000
    130       6.5693      0.00000
    131       6.6013      0.00000
    132       6.9997      0.00000
    133       7.0229      0.00000
    134       7.0443      0.00000
    135       7.2172      0.00000
    136       7.4602      0.00000
    137       7.4849      0.00000
    138       7.5034      0.00000
    139       7.5993      0.00000
    140       7.6184      0.00000
    141       7.6480      0.00000
    142       7.7582      0.00000
    143       7.7756      0.00000
    144       7.7966      0.00000
    145       7.8133      0.00000
    146       7.8231      0.00000
    147       7.8362      0.00000
    148       7.9935      0.00000
    149       8.0180      0.00000
    150       8.0385      0.00000
    151       8.0637      0.00000
    152       8.0868      0.00000
    153       8.1090      0.00000
    154       8.1308      0.00000
    155       8.3058      0.00000
    156       8.3123      0.00000
    157       8.3396      0.00000
    158       8.4166      0.00000
    159       8.4678      0.00000
    160       8.5066      0.00000
    161       8.5223      0.00000

 k-point     4 :       0.2500   -0.2500    0.2500
  band No.  band energies     occupation 
      1      -6.0070      2.00000
      2      -5.5009      2.00000
      3      -5.4707      2.00000
      4      -5.4475      2.00000
      5      -4.9891      2.00000
      6      -4.9689      2.00000
      7      -4.9303      2.00000
      8      -4.5429      2.00000
      9      -4.4684      2.00000
     10      -4.4316      2.00000
     11      -4.4024      2.00000
     12      -4.0870      2.00000
     13      -4.0479      2.00000
     14      -4.0300      2.00000
     15      -4.0054      2.00000
     16      -3.9728      2.00000
     17      -3.9496      2.00000
     18      -3.7889      2.00000
     19      -3.7737      2.00000
     20      -3.7615      2.00000
     21      -3.3352      2.00000
     22      -3.3046      2.00000
     23      -3.2823      2.00000
     24      -3.0015      2.00000
     25      -2.9682      2.00000
     26      -2.9203      2.00000
     27      -2.7922      2.00000
     28      -2.7742      2.00000
     29      -2.7573      2.00000
     30      -2.7345      2.00000
     31      -2.7205      2.00000
     32      -2.7022      2.00000
     33      -1.2878      2.00000
     34      -1.2674      2.00000
     35      -1.2525      2.00000
     36      -1.2333      2.00000
     37      -1.2201      2.00000
     38      -1.1977      2.00000
     39      -1.1495      2.00000
     40      -1.1138      2.00000
     41      -1.0988      2.00000
     42      -1.0480      2.00000
     43      -0.9979      2.00000
     44      -0.9730      2.00000
     45      -0.9347      2.00000
     46      -0.9089      2.00000
     47      -0.8915      2.00000
     48      -0.2438      2.00000
     49      -0.1887      2.00000
     50      -0.1659      2.00000
     51      -0.1455      2.00000
     52      -0.1383      2.00000
     53      -0.0954      2.00000
     54      -0.0779      2.00000
     55       0.7267      2.00000
     56       0.7402      2.00000
     57       0.7716      2.00000
     58       1.0418      2.00000
     59       1.0663      2.00000
     60       1.0889      2.00000
     61       1.6317      2.00000
     62       1.6386      2.00000
     63       1.6575      2.00000
     64       1.6725      2.00000
     65       1.6915      2.00000
     66       1.7018      2.00000
     67       1.7279      2.00000
     68       1.7348      2.00000
     69       1.7484      2.00000
     70       2.2251      2.00000
     71       2.2642      2.00000
     72       2.2895      2.00000
     73       2.3248      2.00000
     74       2.3523      2.00000
     75       2.3674      2.00000
     76       2.3871      2.00000
     77       2.3958      2.00000
     78       2.4139      2.00000
     79       2.4751      2.00000
     80       2.4862      2.00000
     81       2.4974      2.00000
     82       2.7091      2.00000
     83       2.7348      2.00000
     84       2.7537      2.00000
     85       2.7711      2.00000
     86       2.7839      2.00000
     87       2.8132      2.00000
     88       2.9860      2.00000
     89       3.0149      2.00000
     90       3.0248      2.00000
     91       3.0399      2.00000
     92       3.0628      2.00000
     93       3.1057      2.00000
     94       3.3438      2.00000
     95       3.3716      2.00000
     96       3.3875      2.00000
     97       3.4027      2.00000
     98       3.4211      2.00000
     99       3.4619      2.00000
    100       3.4836      2.00000
    101       3.5041      2.00000
    102       3.5238      2.00000
    103       3.7376      2.00000
    104       3.7563      2.00000
    105       3.7682      2.00000
    106       3.7892      2.00000
    107       3.7998      2.00000
    108       3.8154      2.00000
    109       3.8338      2.00000
    110       3.8426      2.00000
    111       3.8525      2.00000
    112       4.0877      2.00000
    113       4.1375      2.00000
    114       4.1497      2.00000
    115       4.1715      2.00000
    116       4.3682      2.00000
    117       4.3898      2.00000
    118       4.4070      2.00000
    119       4.4433      2.00000
    120       4.4644      2.00000
    121       4.4910      2.00000
    122       4.5913      2.00000
    123       4.6363      2.00000
    124       4.9035      2.00000
    125       4.9246      2.00000
    126       4.9507      2.00000
    127       5.3686      2.00000
    128       5.4239      2.00000
    129       6.5432      0.00000
    130       6.5833      0.00000
    131       6.5909      0.00000
    132       6.9898      0.00000
    133       7.0135      0.00000
    134       7.0382      0.00000
    135       7.2133      0.00000
    136       7.4727      0.00000
    137       7.4995      0.00000
    138       7.5142      0.00000
    139       7.5873      0.00000
    140       7.6117      0.00000
    141       7.6465      0.00000
    142       7.7691      0.00000
    143       7.7801      0.00000
    144       7.7991      0.00000
    145       7.8079      0.00000
    146       7.8300      0.00000
    147       7.8545      0.00000
    148       7.9671      0.00000
    149       8.0026      0.00000
    150       8.0325      0.00000
    151       8.0647      0.00000
    152       8.0941      0.00000
    153       8.1025      0.00000
    154       8.1259      0.00000
    155       8.3076      0.00000
    156       8.3200      0.00000
    157       8.3336      0.00000
    158       8.4089      0.00000
    159       8.4377      0.00000
    160       8.4974      0.00000
    161       8.5185      0.00000


--------------------------------------------------------------------------------------------------------


 soft charge-density along one line, spin component           1
         0         1         2         3         4         5         6         7         8         9
 total charge-density along one line
 
 pseudopotential strength for first ion, spin component:           1
 18.436  25.721  -0.002   0.002  -0.001  -0.003   0.003  -0.002
 25.721  35.890  -0.002   0.002  -0.002  -0.004   0.004  -0.003
 -0.002  -0.002   4.182  -0.000   0.000   7.792  -0.000   0.000
  0.002   0.002  -0.000   4.182  -0.000  -0.000   7.792  -0.000
 -0.001  -0.002   0.000  -0.000   4.182   0.000  -0.000   7.792
 -0.003  -0.004   7.792  -0.000   0.000  14.531  -0.001   0.000
  0.003   0.004  -0.000   7.792  -0.000  -0.001  14.531  -0.000
 -0.002  -0.003   0.000  -0.000   7.792   0.000  -0.000  14.531
 total augmentation occupancy for first ion, spin component:           1
  5.973  -2.302  -0.040  -0.018  -0.143   0.012   0.008   0.050
 -2.302   1.000   0.020   0.028   0.070  -0.006  -0.008  -0.023
 -0.040   0.020   3.286  -0.118   0.121  -0.793   0.037  -0.039
 -0.018   0.028  -0.118   3.332  -0.060   0.037  -0.811   0.022
 -0.143   0.070   0.121  -0.060   3.300  -0.039   0.022  -0.798
  0.012  -0.006  -0.793   0.037  -0.039   0.199  -0.011   0.012
  0.008  -0.008   0.037  -0.811   0.022  -0.011   0.206  -0.007
  0.050  -0.023  -0.039   0.022  -0.798   0.012  -0.007   0.201


------------------------ aborting loop because EDIFF is reached ----------------------------------------


    CHARGE:  cpu time      1.4928: real time      1.4970
    FORLOC:  cpu time      0.0246: real time      0.0247
    FORNL :  cpu time      9.5999: real time      9.6247
    STRESS:  cpu time     28.8834: real time     28.9580
    FORCOR:  cpu time      0.5158: real time      0.5173
    FORHAR:  cpu time      0.1804: real time      0.1808
    MIXING:  cpu time      0.0122: real time      0.0123
    OFIELD:  cpu time      0.0000: real time      0.0000

  FORCE on cell =-STRESS in cart. coord.  units (eV):
  Direction    XX          YY          ZZ          XY          YZ          ZX
  --------------------------------------------------------------------------------------
  Alpha Z   105.80793   105.80793   105.80793
  Ewald   -2424.14736 -2425.06120 -2421.18353    15.49360     1.19213    12.01848
  Hartree   161.63459   160.20561   163.28417     1.27132    -0.03749     1.92263
  E(xc)    -808.83344  -808.83999  -808.85969    -0.15619    -0.01551    -0.08632
  Local    -945.88165  -943.38258  -950.51059   -15.76469    -1.04999   -13.38533
  n-local  2484.87708  2484.89727  2485.20667     3.62975     0.37612     2.21308
  augment  -372.04938  -372.05816  -372.07991    -0.15630    -0.00282    -0.11409
  Kinetic  1799.67931  1799.76824  1799.86323    -2.36893    -0.56919    -1.15628
  Fock        0.00000     0.00000     0.00000     0.00000     0.00000     0.00000
  -------------------------------------------------------------------------------------
  Total       1.08707     1.33712     1.52828     1.94855    -0.10675     1.41217
  in kB       1.33651     1.64394     1.87896     2.39567    -0.13125     1.73621
  external pressure =        1.62 kB  Pullay stress =        0.00 kB


 VOLUME and BASIS-vectors are now :
 -----------------------------------------------------------------------------
  energy-cutoff  :      250.00
  volume of cell :     1303.16
      direct lattice vectors                 reciprocal lattice vectors
    10.922351150  0.000000000  0.000000000     0.091555379 -0.000010344  0.000045772
     0.001234140 10.923444540  0.000000000     0.000000000  0.091546215 -0.000066364
    -0.005459700  0.007917940 10.922460720     0.000000000  0.000000000  0.091554461

  length of vectors
    10.922351150 10.923444610 10.922464954     0.091555391  0.091546239  0.091554461


 FORCES acting on ions
    electron-ion (+dipol)            ewald-force                    non-local-force                 convergence-correction
 -----------------------------------------------------------------------------------------------
   -.484E+01 -.167E+01 -.956E+00   0.464E+01 0.193E+01 0.732E+00   0.958E+00 0.143E+00 -.274E+00   -.521E-03 -.303E-03 -.506E-03
   0.330E+00 -.181E+01 0.495E+00   -.339E+00 0.206E+01 -.978E-01   0.223E+00 0.159E+00 -.299E+00   -.111E-02 -.109E-02 -.104E-02
   -.521E+00 -.818E+00 -.194E+01   0.634E+00 0.960E+00 0.171E+01   -.322E+00 0.490E-02 0.526E-01   -.128E-02 -.210E-02 0.100E-02
   -.166E+01 -.291E+01 0.169E+01   0.186E+01 0.329E+01 -.144E+01   0.939E-02 -.348E+00 -.528E+00   -.116E-02 -.138E-02 -.787E-03
   -.154E+01 -.349E+01 -.166E+01   0.164E+01 0.337E+01 0.152E+01   -.412E+00 0.947E-01 0.525E-01   -.236E-02 -.486E-03 -.629E-03
   0.263E+01 -.144E+01 -.235E+01   -.238E+01 0.135E+01 0.197E+01   -.284E+00 -.646E-01 0.635E+00   0.578E-03 0.732E-03 -.343E-03
   -.339E+01 -.629E+00 -.121E+01   0.301E+01 0.969E+00 0.990E+00   0.477E+00 -.419E+00 0.646E+00   -.805E-03 -.122E-02 0.118E-02
   -.200E+01 -.395E+01 -.268E+01   0.180E+01 0.370E+01 0.216E+01   0.460E+00 0.750E+00 0.533E+00   -.421E-03 -.781E-04 0.874E-03
   -.370E+01 -.397E+01 -.202E+01   0.353E+01 0.353E+01 0.160E+01   0.990E+00 -.282E-01 0.404E+00   -.250E-04 0.261E-03 0.170E-03
   0.264E+00 -.440E+01 0.253E+01   -.220E+00 0.400E+01 -.222E+01   -.109E+00 0.621E+00 0.390E+00   -.986E-03 -.266E-03 0.381E-03
   0.180E+00 -.219E+01 -.458E+01   -.592E-01 0.195E+01 0.394E+01   -.849E+00 -.216E-02 0.113E+01   0.144E-04 -.148E-02 -.732E-04
   -.369E+01 -.553E+00 0.369E+01   0.372E+01 0.656E+00 -.348E+01   -.333E+00 -.427E+00 0.751E-01   -.198E-02 -.253E-02 0.527E-03
   0.175E+01 -.103E+01 0.241E+01   -.118E+01 0.144E+01 -.240E+01   -.148E+01 0.465E+00 -.619E+00   -.121E-02 -.178E-02 -.408E-03
   0.155E+01 0.121E+01 -.907E+00   -.125E+01 -.954E+00 0.457E+00   0.543E-01 -.262E+00 0.527E+00   0.296E-04 0.420E-03 0.793E-03
   0.720E+00 -.447E+01 -.427E+01   -.349E+00 0.432E+01 0.400E+01   0.104E+00 0.373E+00 0.295E+00   0.393E-03 -.934E-03 -.127E-02
   0.154E+01 0.268E+01 -.342E+01   -.102E+01 -.223E+01 0.290E+01   -.643E+00 -.120E+01 0.685E+00   0.236E-03 -.126E-02 0.451E-03
   0.967E-01 0.181E+01 -.371E+01   0.349E-01 -.137E+01 0.357E+01   -.212E+00 -.385E+00 0.364E+00   -.803E-03 -.244E-03 0.210E-02
   0.855E+00 0.275E+01 0.176E+00   -.739E+00 -.272E+01 -.150E+00   -.704E+00 -.218E+00 -.737E-01   0.158E-03 0.936E-03 -.123E-02
   0.123E+01 0.346E+01 0.722E+00   -.124E+01 -.319E+01 -.393E+00   -.197E+00 -.501E+00 -.597E+00   0.204E-05 0.161E-02 0.113E-02
   -.158E+00 0.661E+01 -.650E+00   0.368E+00 -.615E+01 0.420E+00   0.265E+00 -.105E+01 0.331E+00   -.149E-02 0.173E-02 -.941E-03
   -.247E+01 0.331E+01 -.329E+01   0.222E+01 -.341E+01 0.303E+01   0.516E+00 -.342E+00 0.344E+00   -.973E-03 0.608E-03 0.433E-03
   -.277E+01 -.214E+01 0.231E+01   0.232E+01 0.192E+01 -.199E+01   0.105E+01 0.538E+00 -.371E+00   -.143E-03 -.980E-03 0.471E-03
   0.112E+01 0.387E+01 -.214E+01   -.120E+01 -.378E+01 0.197E+01   -.119E+00 -.239E+00 0.289E+00   -.118E-02 0.619E-03 0.425E-03
   -.170E+01 0.222E+00 -.209E+01   0.135E+01 -.956E-01 0.209E+01   0.365E+00 0.327E+00 0.881E+00   -.475E-04 0.412E-03 -.541E-03
   -.508E+01 0.958E+00 0.250E+01   0.483E+01 -.110E+01 -.231E+01   0.644E+00 -.809E-01 -.399E+00   0.102E-02 -.305E-03 -.140E-02
   0.139E+01 0.149E+01 0.896E+00   -.133E+01 -.206E+01 -.953E+00   -.292E+00 0.175E+00 -.600E-01   0.441E-03 0.173E-03 0.169E-03
   -.554E+01 -.981E+00 0.567E+01   0.496E+01 0.529E+00 -.500E+01   0.667E+00 0.973E+00 -.144E+01   0.159E-02 0.547E-04 -.100E-02
   -.397E+01 -.535E+00 0.145E+00   0.390E+01 0.579E-01 -.359E+00   0.433E+00 0.498E-02 -.690E-01   -.192E-02 0.990E-03 0.806E-03
   -.560E+01 0.582E+01 0.108E+01   0.530E+01 -.531E+01 -.116E+01   0.480E+00 -.740E+00 0.359E-01   0.138E-02 0.962E-03 -.126E-02
   -.838E+00 0.535E+01 0.452E+01   0.949E+00 -.472E+01 -.405E+01   0.728E+00 -.708E+00 -.891E+00   -.386E-03 -.876E-03 0.120E-02
   -.203E+01 0.235E+01 0.273E+01   0.206E+01 -.245E+01 -.237E+01   0.551E+00 0.432E-01 -.553E+00   0.395E-03 0.252E-02 -.182E-02
   -.126E+01 -.219E+01 -.728E+00   0.137E+01 0.204E+01 0.915E+00   0.238E+00 0.466E+00 0.261E+00   -.634E-04 0.110E-02 0.604E-03
   0.349E+01 0.128E+00 -.331E+01   -.313E+01 0.946E-01 0.292E+01   -.110E+01 -.330E-01 0.748E+00   0.106E-02 -.892E-03 -.200E-02
   0.300E+00 -.411E+01 0.162E+01   -.239E+00 0.433E+01 -.146E+01   -.155E+00 0.314E+00 -.221E+00   0.200E-02 -.827E-04 -.548E-03
   0.457E+01 0.338E+01 -.616E+01   -.410E+01 -.270E+01 0.538E+01   -.422E+00 -.138E+01 0.115E+01   0.143E-02 -.803E-03 0.507E-03
   0.287E+01 -.484E+01 0.301E+01   -.277E+01 0.476E+01 -.262E+01   -.201E+00 0.513E+00 -.280E+00   0.761E-03 -.124E-03 -.501E-03
   0.296E+01 -.569E+01 0.103E+01   -.295E+01 0.534E+01 -.774E+00   -.620E+00 0.417E+00 -.662E+00   0.185E-02 -.755E-03 -.855E-04
   -.235E+00 -.413E+01 0.549E+00   0.212E+00 0.364E+01 -.599E+00   -.474E-02 0.306E+00 0.146E-01   -.153E-03 -.479E-03 -.597E-03
   -.168E+01 -.404E+01 -.133E+01   0.153E+01 0.380E+01 0.130E+01   0.624E-01 0.516E+00 0.520E+00   0.395E-03 -.877E-03 -.469E-03
   0.320E+01 -.215E+01 -.478E+00   -.338E+01 0.202E+01 0.419E+00   0.103E+00 0.257E+00 -.118E+00   0.138E-02 0.135E-02 0.869E-03
   0.781E+00 -.274E+01 0.597E+00   -.823E+00 0.226E+01 -.577E+00   -.623E-01 0.332E+00 -.403E+00   0.932E-03 -.703E-03 0.122E-02
   0.690E+00 -.185E+01 0.263E+01   -.754E+00 0.179E+01 -.246E+01   0.344E+00 0.301E+00 -.477E+00   0.931E-03 -.231E-03 0.116E-03
   -.385E+01 -.366E+01 0.250E+01   0.349E+01 0.351E+01 -.248E+01   0.576E+00 0.363E+00 -.108E+01   -.235E-03 -.749E-03 0.166E-02
   0.472E+01 -.554E+01 0.144E+01   -.445E+01 0.528E+01 -.129E+01   -.962E+00 0.690E+00 -.434E+00   0.664E-04 -.100E-02 -.485E-03
   0.204E+01 0.189E+00 0.765E+00   -.191E+01 0.203E+00 -.768E+00   -.350E+00 -.795E+00 -.114E+00   -.692E-03 -.119E-02 0.884E-03
   -.215E+01 0.434E+01 0.238E+01   0.206E+01 -.379E+01 -.235E+01   0.653E+00 -.658E+00 -.207E+00   -.691E-03 -.234E-02 -.146E-03
   -.576E+01 -.737E+01 0.250E+01   0.570E+01 0.698E+01 -.213E+01   0.186E+00 0.694E+00 -.243E+00   -.148E-03 -.357E-03 -.772E-04
   0.376E+01 -.322E+01 -.343E+01   -.347E+01 0.295E+01 0.309E+01   -.169E+00 -.537E-02 0.830E+00   0.788E-03 0.215E-03 -.117E-03
   -.532E+00 0.264E+01 0.126E+01   0.232E+00 -.223E+01 -.916E+00   0.378E-01 -.606E+00 -.566E+00   0.179E-02 0.203E-03 0.490E-04
   0.718E-01 0.117E+02 -.155E+01   -.228E+00 -.108E+02 0.129E+01   0.829E+00 -.173E+01 0.144E+00   0.497E-03 0.112E-02 0.422E-04
   0.248E+00 0.283E+01 0.787E+00   -.392E+00 -.263E+01 -.709E+00   -.655E-01 0.967E-01 -.217E+00   0.658E-03 0.159E-02 -.270E-03
   0.182E+01 0.129E+01 0.745E+00   -.187E+01 -.157E+01 -.659E+00   0.130E+00 0.681E-01 -.392E+00   0.482E-03 0.143E-02 0.596E-03
   -.255E+01 0.237E+01 -.107E+01   0.196E+01 -.275E+01 0.104E+01   0.946E+00 0.361E+00 -.458E-01   0.230E-02 0.354E-03 -.459E-03
   0.212E+01 0.160E+01 0.180E+01   -.198E+01 -.172E+01 -.145E+01   -.563E+00 -.173E-01 -.269E+00   0.490E-03 -.104E-02 0.309E-03
   -.470E+01 0.563E+01 0.511E+01   0.408E+01 -.545E+01 -.447E+01   0.123E+01 -.870E+00 -.114E+01   -.142E-02 0.102E-02 -.196E-02
   0.191E+01 -.238E+01 0.633E+00   -.229E+01 0.207E+01 -.209E+00   0.293E+00 0.142E+01 -.472E+00   0.862E-03 -.274E-03 -.890E-04
   0.136E+01 -.103E+01 -.216E+01   -.165E+01 0.602E+00 0.216E+01   0.941E+00 0.382E+00 0.349E+00   -.894E-04 0.252E-03 0.412E-03
   0.557E+01 0.123E+01 -.187E+01   -.525E+01 -.168E+01 0.146E+01   -.100E+01 0.176E+00 0.597E+00   -.196E-03 0.154E-02 -.988E-03
   0.919E+00 0.869E+00 -.379E+01   -.111E+01 -.103E+01 0.340E+01   -.150E+00 0.508E+00 0.542E+00   -.192E-02 0.578E-03 0.556E-03
   0.812E+00 0.624E+01 0.241E+01   -.992E+00 -.618E+01 -.238E+01   0.233E+00 -.802E+00 -.271E+00   -.780E-03 -.127E-03 -.242E-03
   0.783E+01 0.394E+01 -.384E+00   -.745E+01 -.394E+01 0.405E+00   -.131E+01 0.310E+00 -.228E+00   -.826E-03 0.835E-03 0.165E-02
   -.375E+00 -.306E+01 0.251E+01   0.603E+00 0.304E+01 -.232E+01   0.427E-01 0.981E+00 0.130E+00   -.513E-03 0.468E-03 0.215E-03
   0.406E+01 0.798E+00 -.455E+01   -.345E+01 -.104E+01 0.445E+01   -.135E+01 0.292E+00 0.108E+01   -.124E-02 0.276E-02 -.996E-04
   0.478E+01 0.381E+01 0.289E+01   -.442E+01 -.369E+01 -.227E+01   -.125E+01 -.439E+00 -.618E-01   0.140E-02 0.617E-03 0.363E-04
 -----------------------------------------------------------------------------------------------
   -.842E-01 -.593E-01 0.606E-01   -.181E-12 0.355E-13 0.653E-13   0.115E+00 0.906E-01 -.477E-01   -.144E-02 -.187E-02 -.561E-03
 
 
 POSITION                                       TOTAL-FORCE (eV/Angst)
 -----------------------------------------------------------------------------------
     10.91439      0.01619      0.09920         0.751317      0.397027     -0.498348
      2.69679      2.71814      0.01369         0.211446      0.405625      0.096943
      2.79697     10.89903      2.75911        -0.210521      0.144351     -0.176767
     10.89001      2.77643      2.75066         0.209953      0.027487     -0.278245
      1.40797      1.37864      1.45767        -0.305806     -0.030820     -0.087168
      4.07091      4.15482      1.34937        -0.035742     -0.154971      0.253650
      4.21751      1.33549      4.03158         0.091490     -0.081240      0.431185
      1.29834      4.10481      4.14808         0.249805      0.500220      0.011354
     10.86912      0.05980      5.46194         0.824713     -0.470423     -0.010153
      2.77152      2.66267      5.32820        -0.066350      0.222520      0.705070
      2.88015      0.02425      8.26054        -0.728783     -0.239980      0.494168
      0.18606      2.78511      8.08554        -0.297902     -0.326620      0.283579
      1.55681      1.25057      6.82540        -0.913867      0.872286     -0.610773
      4.04800      4.02100      6.84635         0.355833     -0.003564      0.077151
      4.15524      1.36808      9.66419         0.475432      0.227370      0.029782
      1.38108      4.19422      9.58522        -0.129803     -0.748221      0.165802
      0.03146      5.57070     10.91759        -0.081699      0.045623      0.218906
      2.76855      8.26653      0.00432        -0.588176     -0.189282     -0.049191
      2.69100      5.53447      2.78754        -0.204178     -0.229184     -0.267082
     10.78164      8.29283      2.70128         0.473978     -0.596137      0.100112
      1.33092      6.97167      1.39224         0.264981     -0.438912      0.080538
      4.12869      9.58170      1.35085         0.601407      0.325245     -0.057493
      4.06171      6.89110      4.15381        -0.201610     -0.143546      0.121179
      1.30346      9.56910      4.00853         0.010947      0.453759      0.875944
     10.86156      5.54324      5.53531         0.387236     -0.224760     -0.214446
      2.67054      8.27549      5.47991        -0.230654     -0.391039     -0.116722
      2.77841      5.45734      8.27769         0.087723      0.519936     -0.776075
      0.01018      8.32316      8.19964         0.358839     -0.471613     -0.281611
      1.36679      6.87889      6.90615         0.177783     -0.228534     -0.046610
      4.05299      9.56425      6.86944         0.837995     -0.082758     -0.418444
      4.10546      6.89256      9.60419         0.579734     -0.059983     -0.194972
      1.36137      9.63434      9.56405         0.347684      0.317748      0.448838
      5.65119     10.90635      0.00111        -0.746190      0.188484      0.357510
      8.29536      2.74112     10.88733        -0.091826      0.534065     -0.060538
      8.15697      0.02800      2.77445         0.049942     -0.698089      0.365755
      5.50446      2.72686      2.64654        -0.098497      0.431090      0.105701
      6.97061      1.40442      1.37149        -0.611696      0.072931     -0.403038
      9.58304      4.18123      1.35648        -0.028886     -0.183125     -0.036386
      9.53368      1.38760      4.06601        -0.091151      0.284240      0.485620
      6.76797      4.07367      4.15430        -0.080630      0.129302     -0.175791
      5.51568      0.01929      5.58193        -0.104015     -0.141373     -0.382301
      8.14079      2.69008      5.49496         0.280051      0.241747     -0.305284
      8.34132      0.03132      8.30189         0.213316      0.205647     -1.060783
      5.53986      2.71865      8.27781        -0.702104      0.432044     -0.284979
      6.91651      1.36759      6.96087        -0.223039     -0.403584     -0.116566
      9.53690      4.05389      6.81479         0.559998     -0.114300     -0.177435
      9.73533      1.42915      9.53807         0.126743      0.295970      0.118486
      6.85900      4.16838      9.57748         0.123599     -0.275816      0.496815
      5.50302      5.53293      0.05403        -0.260175     -0.199939     -0.219295
      8.12995      8.22911      0.01445         0.673132     -0.776138     -0.115253
      8.19589      5.43898      2.81769        -0.209334      0.304606     -0.139561
      5.41120      8.23414      2.80399         0.084283     -0.218921     -0.304871
      6.80242      6.86171      1.47449         0.351141     -0.014205     -0.069967
      9.48197      9.63307      1.34272        -0.416950     -0.140121      0.087945
      9.50367      6.91463      4.14766         0.597273     -0.696248     -0.508162
      6.82112      9.48263      4.17619        -0.078091      1.114298     -0.048546
      5.36920      5.47052      5.49795         0.652683     -0.046049      0.352256
      8.20741      8.18995      5.51731        -0.684030     -0.273212      0.180668
      8.30816      5.41331      8.22188        -0.342379      0.345593      0.151703
      5.50936      8.26151      8.20559         0.052726     -0.750122     -0.247425
      6.92005      6.75317      6.88627        -0.941814      0.310610     -0.205838
      9.54334      9.54074      6.79722         0.270040      0.956474      0.316767
      9.63552      6.89845      9.48227        -0.741574      0.052845      0.979175
      6.95425      9.60681      9.48576        -0.885750     -0.316313      0.553520
 -----------------------------------------------------------------------------------
    total drift:                                0.029265      0.029362      0.012384


--------------------------------------------------------------------------------------------------------



  FREE ENERGIE OF THE ION-ELECTRON SYSTEM (eV)
  ---------------------------------------------------
  free  energy   TOTEN  =      -345.05129891 eV

  energy  without entropy=     -345.05129891  energy(sigma->0) =     -345.05129891
 


--------------------------------------------------------------------------------------------------------


    POTLOK:  cpu time      0.3836: real time      0.3847


--------------------------------------------------------------------------------------------------------


 writing wavefunctions
     LOOP+:  cpu time    218.3786: real time    221.9864
    4ORBIT:  cpu time      0.0000: real time      0.0000

 total amount of memory used by VASP MPI-rank0    37842. kBytes
=======================================================================

   base      :      30000. kBytes
   nonlr-proj:       1192. kBytes
   fftplans  :        841. kBytes
   grid      :       1174. kBytes
   one-center:          9. kBytes
   wavefun   :       4626. kBytes
 
  
  
 General timing and accounting informations for this job:
 ========================================================
  
                  Total CPU time used (sec):      252.605
                            User time (sec):      252.399
                          System time (sec):        0.206
                         Elapsed time (sec):      257.795
  
                   Maximum memory used (kb):      216784.
                   Average memory used (kb):          N/A
  
                          Minor page faults:        19296
                          Major page faults:         8701
                 Voluntary context switches:         4225
