 vasp.6.4.2 20Jul23 (build Jun 27 2024 19:57:08) complex                        
  
 executed on                 T2A5 date 2026.01.14  01:17:27
 running   28 mpi-ranks, with    1 threads/rank, on    1 nodes
 distrk:  each k-point on   28 cores,    1 groups
 distr:  one band on NCORE=  28 cores,    1 groups


--------------------------------------------------------------------------------------------------------


 INCAR:
   ISTART = 1
   ICHARG = 1
   LWAVE = .T.
   LCHARG = .T.
   ENCUT = 250
   PREC = Normal
   ADDGRID = .F.
   EDIFF = 1E-4
   LREAL = Auto
   ALGO = Fast
   NSW = 0
   IBRION = -1
   ISMEAR = 0
   SIGMA = 0.1
   NPAR = 1
   KPAR = 1
   SYMPREC = 1E-4

 POTCAR:    PAW_PBE Si 05Jan2001                  
 POTCAR:    PAW_PBE Si 05Jan2001                  
   SHA256 =  79d9987ad8750f624c4d6acb2a16d13abf6a777132adc04dc6c8399be72b42bb Si/POTCAR             
   COPYR  = (c) Copyright 05Jan2001 Georg Kresse                                                    
   COPYR  = This file is part of the software VASP. Any use, copying, and all other rights are regul
   COPYR  = If you do not have a valid VASP license, you may not use, copy or distribute this file. 
   VRHFIN =Si: s2p2                                                                                 
   LEXCH  = PE                                                                                      
   EATOM  =   103.0669 eV,    7.5752 Ry                                                             
                                                                                                    
   TITEL  = PAW_PBE Si 05Jan2001                                                                    
   LULTRA =        F    use ultrasoft PP ?                                                          
   IUNSCR =        1    unscreen: 0-lin 1-nonlin 2-no                                               
   RPACOR =    1.500    partial core radius                                                         
   POMASS =   28.085; ZVAL   =    4.000    mass and valenz                                          
   RCORE  =    1.900    outmost cutoff radius                                                       
   RWIGS  =    2.480; RWIGS  =    1.312    wigner-seitz radius (au A)                               
   ENMAX  =  245.345; ENMIN  =  184.009 eV                                                          
   ICORE  =        2    local potential                                                             
   LCOR   =        T    correct aug charges                                                         
   LPAW   =        T    paw PP                                                                      
   EAUG   =  322.069                                                                                
   DEXC   =    0.000                                                                                
   RMAX   =    1.950    core radius for proj-oper                                                   
   RAUG   =    1.300    factor for augmentation sphere                                              
   RDEP   =    1.993    radius for radial grids                                                     
   RDEPT  =    1.837    core radius for aug-charge                                                  
                                                                                                    
   Atomic configuration                                                                             
    6 entries                                                                                       
     n  l   j            E        occ.                                                              
     1  0  0.50     -1785.8828   2.0000                                                             
     2  0  0.50      -139.4969   2.0000                                                             
     2  1  1.50       -95.5546   6.0000                                                             
     3  0  0.50       -10.8127   2.0000                                                             
     3  1  0.50        -4.0811   2.0000                                                             
     3  2  1.50        -4.0817   0.0000                                                             
   Description                                                                                      
     l       E           TYP  RCUT    TYP  RCUT                                                     
     0    -10.8127223     23  1.900                                                                 
     0     -7.6451159     23  1.900                                                                 
     1     -4.0811372     23  1.900                                                                 
     1      2.4879257     23  1.900                                                                 
     2     -4.0817478      7  1.900                                                                 
  local pseudopotential read in
  partial core-charges read in
  partial kinetic energy density read in
  atomic valenz-charges read in
  non local Contribution for L=           0  read in
    real space projection operators read in
  non local Contribution for L=           0  read in
    real space projection operators read in
  non local Contribution for L=           1  read in
    real space projection operators read in
  non local Contribution for L=           1  read in
    real space projection operators read in
    PAW grid and wavefunctions read in
 
   number of l-projection  operators is LMAX  =           4
   number of lm-projection operators is LMMAX =           8
 
 Optimization of the real space projectors (new method)

 maximal supplied QI-value         = 19.84
 optimisation between [QCUT,QGAM] = [  7.94, 16.07] = [ 17.64, 72.34] Ry 
 Optimized for a Real-space Cutoff    1.55 Angstroem

   l    n(q)    QCUT    max X(q) W(low)/X(q) W(high)/X(q)  e(spline) 
   0      7     7.937   159.560    0.97E-04    0.31E-03    0.13E-06
   0      7     7.937   115.863    0.95E-04    0.31E-03    0.13E-06
   1      7     7.937    88.339    0.40E-03    0.66E-03    0.12E-06
   1      7     7.937    48.592    0.39E-03    0.64E-03    0.12E-06
  PAW_PBE Si 05Jan2001                  :
 energy of atom  1       EATOM= -103.0669
 kinetic energy error for atom=    0.0052 (will be added to EATOM!!)
 
 
 POSCAR: Si
  positions in cartesian coordinates
  No initial velocities read in
 exchange correlation table for  LEXCH =        8
   RHO(1)=    0.500       N(1)  =     2000
   RHO(2)=  100.500       N(2)  =     4000
 


--------------------------------------------------------------------------------------------------------


 ion  position               nearest neighbor table
   1  0.007  0.007  0.007-   5 2.33  47 2.34  32 2.36  54 2.40
   2  0.250  0.253  0.003-  16 2.33   6 2.34   5 2.37  15 2.40
   3  0.261  0.002  0.249-   5 2.29   7 2.32  22 2.34  24 2.42
   4  0.000  0.258  0.249-   8 2.30  38 2.36  39 2.41   5 2.42
   5  0.134  0.123  0.133-   3 2.29   1 2.33   2 2.37   4 2.42
   6  0.376  0.375  0.127-  36 2.33   2 2.34  49 2.41  19 2.45
   7  0.386  0.124  0.370-  36 2.31   3 2.32  41 2.35  10 2.39
   8  0.121  0.376  0.375-   4 2.30  19 2.34  25 2.42  10 2.42
   9  0.998  0.999  0.503-  24 2.33  62 2.33  39 2.40  13 2.49
  10  0.255  0.247  0.496-  13 2.32  14 2.36   7 2.39   8 2.42
  11  0.257  0.002  0.763-  32 2.30  15 2.36  13 2.37  30 2.40
  12  0.020  0.258  0.747-  16 2.30  13 2.32  46 2.40  47 2.46
  13  0.140  0.127  0.629-  10 2.32  12 2.32  11 2.37   9 2.49
  14  0.373  0.373  0.627-  57 2.34  10 2.36  44 2.38  27 2.42
  15  0.386  0.128  0.883-  11 2.36  33 2.37  44 2.38   2 2.40
  16  0.129  0.381  0.881-  12 2.30   2 2.33  17 2.33  27 2.36
  17  0.006  0.510  0.999-  63 2.27  16 2.33  21 2.36  38 2.40
  18  0.249  0.758  0.005-  22 2.36  21 2.36  32 2.36  31 2.43
  19  0.246  0.504  0.256-   8 2.34  21 2.39   6 2.45  23 2.47
  20  0.994  0.753  0.254-  55 2.28  21 2.31  24 2.39  54 2.41
  21  0.122  0.636  0.132-  20 2.31  18 2.36  17 2.36  19 2.39
  22  0.384  0.879  0.122-  33 2.27   3 2.34  18 2.36  52 2.39
  23  0.381  0.634  0.383-  52 2.30  57 2.34  26 2.35  19 2.47
  24  0.123  0.881  0.376-   9 2.33  26 2.38  20 2.39   3 2.42
  25  0.999  0.507  0.507-  46 2.30  55 2.32  29 2.38   8 2.42
  26  0.246  0.752  0.502-  23 2.35  29 2.35  24 2.38  30 2.41
  27  0.252  0.508  0.755-  29 2.32  31 2.36  16 2.36  14 2.42
  28  0.008  0.762  0.747-  29 2.29  32 2.30  62 2.33  63 2.48
  29  0.126  0.630  0.635-  28 2.29  27 2.32  26 2.35  25 2.38
  30  0.378  0.881  0.625-  41 2.31  60 2.39  11 2.40  26 2.41
  31  0.381  0.626  0.882-  49 2.25  27 2.36  60 2.42  18 2.43
  32  0.125  0.881  0.876-  28 2.30  11 2.30  18 2.36   1 2.36
  33  0.509  0.003  0.013-  22 2.27  37 2.30  64 2.36  15 2.37
  34  0.754  0.254  0.001-  48 2.33  37 2.34  38 2.41  47 2.43
  35  0.752  0.002  0.255-  54 2.30  37 2.37  56 2.37  39 2.38
  36  0.502  0.252  0.249-  40 2.27   7 2.31   6 2.33  37 2.33
  37  0.632  0.131  0.128-  33 2.30  36 2.33  34 2.34  35 2.37
  38  0.876  0.388  0.128-   4 2.36  51 2.37  17 2.40  34 2.41
  39  0.873  0.134  0.381-  42 2.30  35 2.38   9 2.40   4 2.41
  40  0.619  0.368  0.376-  36 2.27  42 2.37  51 2.41  57 2.49
  41  0.503  0.004  0.507-  30 2.31   7 2.35  56 2.35  45 2.44
  42  0.748  0.250  0.505-  45 2.29  39 2.30  46 2.35  40 2.37
  43  0.764  1.000  0.749-  62 2.24  45 2.26  47 2.38  64 2.42
  44  0.507  0.256  0.754-  48 2.36  14 2.38  15 2.38  45 2.43
  45  0.641  0.124  0.636-  43 2.26  42 2.29  44 2.43  41 2.44
  46  0.881  0.374  0.622-  25 2.30  59 2.34  42 2.35  12 2.40
  47  0.887  0.127  0.875-   1 2.34  43 2.38  34 2.43  12 2.46
  48  0.630  0.381  0.882-  34 2.33  59 2.35  49 2.36  44 2.36
  49  0.501  0.507  0.001-  31 2.25  48 2.36  53 2.37   6 2.41
  50  0.755  0.748  0.997-  63 2.32  54 2.38  53 2.40  64 2.41
  51  0.750  0.504  0.262-  38 2.37  55 2.40  53 2.40  40 2.41
  52  0.502  0.748  0.252-  53 2.28  23 2.30  22 2.39  56 2.43
  53  0.625  0.630  0.130-  52 2.28  49 2.37  50 2.40  51 2.40
  54  0.869  0.883  0.126-  35 2.30  50 2.38   1 2.40  20 2.41
  55  0.881  0.633  0.384-  20 2.28  25 2.32  58 2.35  51 2.40
  56  0.627  0.878  0.383-  41 2.35  58 2.36  35 2.37  52 2.43
  57  0.497  0.505  0.510-  61 2.32  23 2.34  14 2.34  40 2.49
  58  0.747  0.748  0.507-  61 2.30  55 2.35  62 2.35  56 2.36
  59  0.764  0.495  0.756-  63 2.32  46 2.34  48 2.35  61 2.43
  60  0.506  0.758  0.753-  64 2.31  30 2.39  31 2.42  61 2.44
  61  0.632  0.620  0.628-  58 2.30  57 2.32  59 2.43  60 2.44
  62  0.874  0.877  0.626-  43 2.24   9 2.33  28 2.33  58 2.35
  63  0.881  0.625  0.878-  17 2.27  50 2.32  59 2.32  28 2.48
  64  0.626  0.881  0.877-  60 2.31  33 2.36  50 2.41  43 2.42
 
  LATTYP: Found a base centered monoclinic cell.
 ALAT       =    26.6635678315
 B/A-ratio  =     0.5776974948
 C/A-ratio  =     0.7071236961
 COS(beta)  =    -0.9426857236
  
  Lattice vectors:
  
 A1 = ( -10.8830066700,  -0.0096363100, -10.8907827300)
 A2 = (   0.0077718600,  10.8833901900, -10.8907827300)
 A3 = (  10.8826743600, -10.8833901900,  10.8907827300)


Analysis of symmetry for initial positions (statically):
=====================================================================
 Subroutine PRICEL returns:
 Original cell was already a primitive cell.
 

 Routine SETGRP: Setting up the symmetry group for a 
 base centered monoclinic supercell.


 Subroutine GETGRP returns: Found  1 space group operations
 (whereof  1 operations were pure point group operations)
 out of a pool of  4 trial point group operations.


The static configuration has the point symmetry C_1 .


Analysis of symmetry for dynamics (positions and initial velocities):
=====================================================================
 Subroutine PRICEL returns:
 Original cell was already a primitive cell.
 

 Routine SETGRP: Setting up the symmetry group for a 
 base centered monoclinic supercell.


 Subroutine GETGRP returns: Found  1 space group operations
 (whereof  1 operations were pure point group operations)
 out of a pool of  4 trial point group operations.


The dynamic configuration has the point symmetry C_1 .


 Subroutine INISYM returns: Found  1 space group operations
 (whereof  1 operations are pure point group operations),
 and found     1 'primitive' translations


----------------------------------------------------------------------------------------

                                     Primitive cell                                     

  volume of cell :    1291.9727

  direct lattice vectors                    reciprocal lattice vectors
    10.890446220  0.000000000  0.000000000     0.091823602 -0.000002801  0.000062728
     0.000332310 10.893026500  0.000000000     0.000000000  0.091801851 -0.000081228
    -0.007439550  0.009636310 10.890782730     0.000000000  0.000000000  0.091820765

  length of vectors
    10.890446220 10.893026505 10.890789534     0.091823624  0.091801887  0.091820765

  position of ions in fractional coordinates (direct lattice)
     0.006839484  0.006785762  0.007063557
     0.249721324  0.253172558  0.002617644
     0.260914983  0.001519622  0.249459832
     0.000095191  0.257944000  0.248736438
     0.134117125  0.123297372  0.133289451
     0.375597610  0.374810434  0.126811534
     0.386156649  0.123651049  0.370413970
     0.120743675  0.376098517  0.375022946
     0.998343846  0.999369926  0.502819010
     0.255210479  0.247021022  0.496012779
     0.256584434  0.001730171  0.762570232
     0.020164983  0.258018629  0.747169852
     0.139545420  0.127118318  0.628794650
     0.372981635  0.373029371  0.626536158
     0.385528631  0.127773606  0.883343269
     0.128811077  0.380633405  0.880840580
     0.006318352  0.510006543  0.999154930
     0.249095449  0.757501037  0.004979314
     0.245712140  0.504233940  0.256189042
     0.994089371  0.752760283  0.253623976
     0.122455150  0.636321412  0.132125437
     0.383796205  0.879279408  0.122434092
     0.381005683  0.634345981  0.382740228
     0.123443189  0.881279647  0.376466813
     0.999146889  0.506511701  0.506756545
     0.246055188  0.751756652  0.502491846
     0.252230849  0.507828645  0.755442256
     0.008224284  0.761704830  0.746844161
     0.126300368  0.629528887  0.634688792
     0.377547220  0.880665456  0.624616021
     0.381467365  0.626299483  0.882292557
     0.125427063  0.880814325  0.876317324
     0.509463925  0.003472376  0.012709712
     0.753707516  0.254276986  0.001090462
     0.752076258  0.001771120  0.255043304
     0.502293849  0.251954787  0.248520571
     0.631903707  0.130983543  0.128247606
     0.875895656  0.387783899  0.127792929
     0.873444126  0.133643808  0.380561758
     0.619245055  0.367850588  0.375871829
     0.503068546  0.004192875  0.506645862
     0.748431558  0.249739210  0.505175135
     0.763572117  0.999500011  0.748810944
     0.506884351  0.256388274  0.754472730
     0.641209492  0.123761855  0.635513730
     0.880831667  0.374388629  0.621988751
     0.887102235  0.127309368  0.875173594
     0.630264019  0.381489107  0.881630052
     0.500954850  0.507173727  0.001461060
     0.755200375  0.747726146  0.997452981
     0.750056606  0.504408120  0.261657081
     0.501950756  0.747914640  0.252142646
     0.625204512  0.630132669  0.130358020
     0.868780518  0.882968188  0.125567699
     0.880724323  0.633307925  0.383504228
     0.626734096  0.878430708  0.382702123
     0.496529972  0.505402850  0.510123372
     0.747187290  0.748254562  0.507137778
     0.764361807  0.494654275  0.756011477
     0.506261449  0.757806822  0.753309963
     0.631678531  0.620265702  0.628367306
     0.873850591  0.876666969  0.625818178
     0.881285576  0.624669866  0.877852689
     0.625965162  0.880704132  0.877265721

  ion indices of the primitive-cell ions
   primitive index   ion index
                 1           1
                 2           2
                 3           3
                 4           4
                 5           5
                 6           6
                 7           7
                 8           8
                 9           9
                10          10
                11          11
                12          12
                13          13
                14          14
                15          15
                16          16
                17          17
                18          18
                19          19
                20          20
                21          21
                22          22
                23          23
                24          24
                25          25
                26          26
                27          27
                28          28
                29          29
                30          30
                31          31
                32          32
                33          33
                34          34
                35          35
                36          36
                37          37
                38          38
                39          39
                40          40
                41          41
                42          42
                43          43
                44          44
                45          45
                46          46
                47          47
                48          48
                49          49
                50          50
                51          51
                52          52
                53          53
                54          54
                55          55
                56          56
                57          57
                58          58
                59          59
                60          60
                61          61
                62          62
                63          63
                64          64

----------------------------------------------------------------------------------------

 
 
 KPOINTS: K-Points                                

Automatic generation of k-mesh.
 Grid dimensions read from file:
 generate k-points for:    2    2    2

 Generating k-lattice:

  Cartesian coordinates                     Fractional coordinates (reciprocal lattice)
     0.045911801 -0.000001401  0.000031364     0.500000000  0.000000000 -0.000000000
     0.000000000  0.045900926 -0.000040614     0.000000000  0.500000000  0.000000000
     0.000000000  0.000000000  0.045910382     0.000000000  0.000000000  0.500000000

  Length of vectors
     0.045911812  0.045900944  0.045910382

  Shift w.r.t. Gamma in fractional coordinates (k-lattice)
     0.500000000  0.500000000  0.500000000

 
 Subroutine IBZKPT returns following result:
 ===========================================
 
 Found      4 irreducible k-points:
 
 Following reciprocal coordinates:
            Coordinates               Weight
  0.250000  0.250000  0.250000      2.000000
  0.250000  0.250000 -0.250000      2.000000
 -0.250000  0.250000  0.250000      2.000000
  0.250000 -0.250000  0.250000      2.000000
 
 Following cartesian coordinates:
            Coordinates               Weight
  0.022956  0.022950  0.022951      2.000000
  0.022956  0.022950 -0.022960      2.000000
 -0.022956  0.022951  0.022919      2.000000
  0.022956 -0.022951  0.022991      2.000000
 


--------------------------------------------------------------------------------------------------------




 Dimension of arrays:
   k-points           NKPTS =      4   k-points in BZ     NKDIM =      4   number of bands    NBANDS=    161
   number of dos      NEDOS =    301   number of ions     NIONS =     64
   non local maximal  LDIM  =      4   non local SUM 2l+1 LMDIM =      8
   total plane-waves  NPLWV =  74088
   max r-space proj   IRMAX =    947   max aug-charges    IRDMAX=   2117
   dimension x,y,z NGX =    42 NGY =   42 NGZ =   42
   dimension x,y,z NGXF=    84 NGYF=   84 NGZF=   84
   support grid    NGXF=    84 NGYF=   84 NGZF=   84
   ions per type =              64
   NGX,Y,Z   is equivalent  to a cutoff of   6.41,  6.41,  6.41 a.u.
   NGXF,Y,Z  is equivalent  to a cutoff of  12.82, 12.82, 12.82 a.u.

 SYSTEM =  unknown system                          
 POSCAR =  Si                                      

 Startparameter for this run:
   NWRITE =      2    write-flag & timer
   PREC   = normal    normal or accurate (medium, high low for compatibility)
   ISTART =      1    job   : 0-new  1-cont  2-samecut
   ICHARG =      1    charge: 1-file 2-atom 10-const
   ISPIN  =      1    spin polarized calculation?
   LNONCOLLINEAR =      F non collinear calculations
   LSORBIT =      F    spin-orbit coupling
   INIWAV =      1    electr: 0-lowe 1-rand  2-diag
   LASPH  =      F    aspherical Exc in radial PAW
 Electronic Relaxation 1
   ENCUT  =  250.0 eV  18.37 Ry    4.29 a.u.  14.04 14.04 14.04*2*pi/ulx,y,z
   ENINI  =  250.0     initial cutoff
   ENAUG  =  322.1 eV  augmentation charge cutoff
   NELM   =     60;   NELMIN=  2; NELMDL=  0     # of ELM steps 
   EDIFF  = 0.1E-03   stopping-criterion for ELM
   LREAL  =      T    real-space projection
   NLSPLINE    = F    spline interpolate recip. space projectors
   LCOMPAT=      F    compatible to vasp.4.4
   GGA_COMPAT  = T    GGA compatible to vasp.4.4-vasp.4.6
   LMAXPAW     = -100 max onsite density
   LMAXMIX     =    2 max onsite mixed and CHGCAR
   VOSKOWN=      0    Vosko Wilk Nusair interpolation
   ROPT   =   -0.00050
 Ionic relaxation
   EDIFFG = 0.1E-02   stopping-criterion for IOM
   NSW    =      0    number of steps for IOM
   NBLOCK =      1;   KBLOCK =      1    inner block; outer block 
   IBRION =     -1    ionic relax: 0-MD 1-quasi-New 2-CG
   NFREE  =      0    steps in history (QN), initial steepest desc. (CG)
   ISIF   =      2    stress and relaxation
   IWAVPR =     10    prediction:  0-non 1-charg 2-wave 3-comb
   ISYM   =      2    0-nonsym 1-usesym 2-fastsym
   LCORR  =      T    Harris-Foulkes like correction to forces

   POTIM  = 0.5000    time-step for ionic-motion
   TEIN   =    0.0    initial temperature
   TEBEG  =    0.0;   TEEND  =   0.0 temperature during run
   SMASS  =  -3.00    Nose mass-parameter (am)
   estimated Nose-frequenzy (Omega)   =  0.10E-29 period in steps = 0.13E+47 mass=  -0.271E-26a.u.
   SCALEE = 1.0000    scale energy and forces
   NPACO  =    256;   APACO  = 10.0  distance and # of slots for P.C.
   PSTRESS=    0.0 pullay stress

  Mass of Ions in am
   POMASS =  28.09
  Ionic Valenz
   ZVAL   =   4.00
  Atomic Wigner-Seitz radii
   RWIGS  =  -1.00
  virtual crystal weights 
   VCA    =   1.00
   NELECT =     256.0000    total number of electrons
   NUPDOWN=      -1.0000    fix difference up-down

 DOS related values:
   EMIN   =  10.00;   EMAX   =-10.00  energy-range for DOS
   EFERMI =   0.00;   METHOD = LEGACY      
   ISMEAR =     0;   SIGMA  =   0.10  broadening in eV -4-tet -1-fermi 0-gaus

 Electronic relaxation 2 (details)
   IALGO  =     68    algorithm
   LDIAG  =      T    sub-space diagonalisation (order eigenvalues)
   LSUBROT=      F    optimize rotation matrix (better conditioning)
   TURBO    =      0    0=normal 1=particle mesh
   IRESTART =      0    0=no restart 2=restart with 2 vectors
   NREBOOT  =      0    no. of reboots
   NMIN     =      0    reboot dimension
   EREF     =   0.00    reference energy to select bands
   IMIX   =      4    mixing-type and parameters
     AMIX     =   0.40;   BMIX     =  1.00
     AMIX_MAG =   1.60;   BMIX_MAG =  1.00
     AMIN     =   0.10
     WC   =   100.;   INIMIX=   1;  MIXPRE=   1;  MAXMIX= -45

 Intra band minimization:
   WEIMIN = 0.0000     energy-eigenvalue tresh-hold
   EBREAK =  0.16E-06  absolut break condition
   DEPER  =   0.30     relativ break condition  

   TIME   =   0.40     timestep for ELM

  volume/ion in A,a.u.               =      20.19       136.23
  Fermi-wavevector in a.u.,A,eV,Ry     =   0.954415  1.803582 12.393643  0.910907
  Thomas-Fermi vector in A             =   2.083159
 
 Write flags
   LWAVE        =      T    write WAVECAR
   LDOWNSAMPLE  =      F    k-point downsampling of WAVECAR
   LCHARG       =      T    write CHGCAR
   LVTOT        =      F    write LOCPOT, total local potential
   LVHAR        =      F    write LOCPOT, Hartree potential only
   LELF         =      F    write electronic localiz. function (ELF)
   LORBIT       =      0    0 simple, 1 ext, 2 COOP (PROOUT), +10 PAW based schemes


 Dipole corrections
   LMONO  =      F    monopole corrections only (constant potential shift)
   LDIPOL =      F    correct potential (dipole corrections)
   IDIPOL =      0    1-x, 2-y, 3-z, 4-all directions 
   EPSILON=  1.0000000 bulk dielectric constant

 Exchange correlation treatment:
   GGA     =    --    GGA type
   LEXCH   =     8    internal setting for exchange type
   LIBXC   =     F    Libxc                    
   VOSKOWN =     0    Vosko Wilk Nusair interpolation
   LHFCALC =     F    Hartree Fock is set to
   LHFONE  =     F    Hartree Fock one center treatment
   AEXX    =    0.0000 exact exchange contribution

 Linear response parameters
   LEPSILON=     F    determine dielectric tensor
   LRPA    =     F    only Hartree local field effects (RPA)
   LNABLA  =     F    use nabla operator in PAW spheres
   LVEL    =     F    velocity operator in full k-point grid
   CSHIFT  =0.1000    complex shift for real part using Kramers Kronig
   OMEGAMAX=  -1.0    maximum frequency
   DEG_THRESHOLD= 0.2000000E-02 threshold for treating states as degnerate
   RTIME   =   -0.100 relaxation time in fs
  (WPLASMAI=    0.000 imaginary part of plasma frequency in eV, 0.658/RTIME)
   DFIELD  = 0.0000000 0.0000000 0.0000000 field for delta impulse in time
 
  Optional k-point grid parameters
   LKPOINTS_OPT  =     F    use optional k-point grid
   KPOINTS_OPT_MODE=     1    mode for optional k-point grid
 
 Orbital magnetization related:
   ORBITALMAG=     F  switch on orbital magnetization
   LCHIMAG   =     F  perturbation theory with respect to B field
   DQ        =  0.001000  dq finite difference perturbation B field
   LLRAUG    =     F  two centre corrections for induced B field
   LBONE     =     F  B-component reconstruction in AE one-centre
   LVGVCALC  =     T  calculate vGv susceptibility
   LVGVAPPL  =     F  apply vGv susceptibility instead of pGv for G=0

 Random number generation:
   RANDOM_GENERATOR = DEFAULT
   PCG_SEED         = not used


--------------------------------------------------------------------------------------------------------


 Static calculation
 charge density and potential will be updated during run
 non-spin polarized calculation
 RMM-DIIS sequential band-by-band and
  variant of blocked Davidson during initial phase
 perform sub-space diagonalisation
    before iterative eigenvector-optimisation
 modified Broyden-mixing scheme, WC =      100.0
 initial mixing is a Kerker type mixing with AMIX =  0.4000 and BMIX =      1.0000
 Hartree-type preconditioning will be used
 using additional bands           33
 real space projection scheme for non local part
 use partial core corrections
 calculate Harris-corrections to forces 
   (improved forces if not selfconsistent)
 use gradient corrections 
 use of overlap-Matrix (Vanderbilt PP)
 Gauss-broadening in eV      SIGMA  =   0.10


--------------------------------------------------------------------------------------------------------


  energy-cutoff  :      250.00
  volume of cell :     1291.97
      direct lattice vectors                 reciprocal lattice vectors
    10.890446220  0.000000000  0.000000000     0.091823602 -0.000002801  0.000062728
     0.000332310 10.893026500  0.000000000     0.000000000  0.091801851 -0.000081228
    -0.007439550  0.009636310 10.890782730     0.000000000  0.000000000  0.091820765

  length of vectors
    10.890446220 10.893026505 10.890789534     0.091823624  0.091801887  0.091820765


 
 old parameters found on file WAVECAR:
  energy-cutoff  :      250.00
  volume of cell :     1291.25
      direct lattice vectors                 reciprocal lattice vectors
    10.888312360  0.000000000  0.000000000     0.091841597 -0.000002644  0.000063163
     0.000313500 10.891054180  0.000000000     0.000000000  0.091818476 -0.000081613
    -0.007488330  0.009678530 10.888793700     0.000000000  0.000000000  0.091837538

  length of vectors

 
 k-points in units of 2pi/SCALE and weight: K-Points                                
   0.02295590  0.02294976  0.02295057       0.250
   0.02295590  0.02294976 -0.02295982       0.250
  -0.02295590  0.02295116  0.02291920       0.250
   0.02295590 -0.02295116  0.02299118       0.250
 
 k-points in reciprocal lattice and weights: K-Points                                
   0.25000000  0.25000000  0.25000000       0.250
   0.25000000  0.25000000 -0.25000000       0.250
  -0.25000000  0.25000000  0.25000000       0.250
   0.25000000 -0.25000000  0.25000000       0.250
 
 position of ions in fractional coordinates (direct lattice) 
   0.00683948  0.00678576  0.00706356
   0.24972132  0.25317256  0.00261764
   0.26091498  0.00151962  0.24945983
   0.00009519  0.25794400  0.24873644
   0.13411713  0.12329737  0.13328945
   0.37559761  0.37481043  0.12681153
   0.38615665  0.12365105  0.37041397
   0.12074368  0.37609852  0.37502295
   0.99834385  0.99936993  0.50281901
   0.25521048  0.24702102  0.49601278
   0.25658443  0.00173017  0.76257023
   0.02016498  0.25801863  0.74716985
   0.13954542  0.12711832  0.62879465
   0.37298163  0.37302937  0.62653616
   0.38552863  0.12777361  0.88334327
   0.12881108  0.38063340  0.88084058
   0.00631835  0.51000654  0.99915493
   0.24909545  0.75750104  0.00497931
   0.24571214  0.50423394  0.25618904
   0.99408937  0.75276028  0.25362398
   0.12245515  0.63632141  0.13212544
   0.38379621  0.87927941  0.12243409
   0.38100568  0.63434598  0.38274023
   0.12344319  0.88127965  0.37646681
   0.99914689  0.50651170  0.50675655
   0.24605519  0.75175665  0.50249185
   0.25223085  0.50782864  0.75544226
   0.00822428  0.76170483  0.74684416
   0.12630037  0.62952889  0.63468879
   0.37754722  0.88066546  0.62461602
   0.38146737  0.62629948  0.88229256
   0.12542706  0.88081433  0.87631732
   0.50946393  0.00347238  0.01270971
   0.75370752  0.25427699  0.00109046
   0.75207626  0.00177112  0.25504330
   0.50229385  0.25195479  0.24852057
   0.63190371  0.13098354  0.12824761
   0.87589566  0.38778390  0.12779293
   0.87344413  0.13364381  0.38056176
   0.61924505  0.36785059  0.37587183
   0.50306855  0.00419287  0.50664586
   0.74843156  0.24973921  0.50517514
   0.76357212  0.99950001  0.74881094
   0.50688435  0.25638827  0.75447273
   0.64120949  0.12376185  0.63551373
   0.88083167  0.37438863  0.62198875
   0.88710223  0.12730937  0.87517359
   0.63026402  0.38148911  0.88163005
   0.50095485  0.50717373  0.00146106
   0.75520038  0.74772615  0.99745298
   0.75005661  0.50440812  0.26165708
   0.50195076  0.74791464  0.25214265
   0.62520451  0.63013267  0.13035802
   0.86878052  0.88296819  0.12556770
   0.88072432  0.63330793  0.38350423
   0.62673410  0.87843071  0.38270212
   0.49652997  0.50540285  0.51012337
   0.74718729  0.74825456  0.50713778
   0.76436181  0.49465428  0.75601148
   0.50626145  0.75780682  0.75330996
   0.63167853  0.62026570  0.62836731
   0.87385059  0.87666697  0.62581818
   0.88128558  0.62466987  0.87785269
   0.62596516  0.88070413  0.87726572
 
 position of ions in cartesian coordinates  (Angst):
   0.07443474  0.07398555  0.07692767
   2.71964131  2.75784061  0.02850819
   2.83962523  0.01895716  2.71681283
  -0.00072810  2.81218773  2.70893450
   1.45964470  1.34436596  1.45162645
   4.08960670  4.08404198  1.38107686
   4.20270360  1.35050358  4.03409807
   1.31228748  4.10046495  4.08429342
  10.86900132 10.89100841  5.47609259
   2.77574797  2.69558627  5.40196741
   2.78864638  0.02619516  8.30498671
   0.21413280  2.81780372  8.13726452
   1.51507618  1.39076247  6.84806591
   4.05739925  4.06945632  6.82346917
   4.19204961  1.40035345  9.62029962
   1.39638354  4.15473782  9.59304338
   0.06154589  5.56514295 10.88157926
   2.71297527  8.25152685  0.05422863
   2.67417648  5.49510239  2.79009919
  10.82444013  8.20228171  2.76216362
   1.33281973  6.93273920  1.43894943
   4.17909327  9.57919370  1.33340310
   4.14668529  6.91363579  4.16834067
   1.34184352  9.60343030  4.10001826
  10.87755374  5.52232865  5.51897543
   2.67616230  8.19374730  5.47252952
   2.74145510  5.53907056  8.22735747
   0.08426306  8.30446772  8.13371749
   1.37095477  6.86359091  6.91225773
   4.10730349  9.59913114  6.80255737
   4.14799409  6.83079891  9.60885654
   1.35972998  9.60317825  9.54378158
   5.54819608  0.03794716  0.13841871
   8.20828756  2.76985646  0.01187598
   8.18854922  0.02175053  2.77762121
   5.46843899  2.74694499  2.70658354
   6.88080276  1.42804304  1.39671681
   9.53807268  4.22537174  1.39176502
   9.50940948  1.45945275  4.14461542
   6.74118089  4.01062822  4.09353842
   5.47487312  0.05055529  5.51777000
   8.14707835  2.72528386  5.50175264
   8.31040240 10.89479588  8.15513730
   5.51466903  2.80011460  8.21679858
   6.97837068  1.35426517  6.92124196
   9.58814699  4.08421893  6.77394435
   9.65447059  1.39521776  9.53132546
   6.85742424  4.16406661  9.60164134
   5.45577952  5.52467093  0.01591209
   8.21729695  8.15461249 10.86304370
   8.16667214  5.49705243  2.84965042
   5.46484043  8.14948372  2.74603077
   6.80799571  6.86530803  1.41970087
   9.46076676  9.61940588  1.36753053
   9.58883823  6.90233558  4.17666122
   6.82285875  9.57245682  4.16792567
   5.40380582  5.51028235  5.55564281
   8.13367877  8.15564371  5.52312735
   8.31878114  5.39556729  8.23355674
   5.50806062  8.26206892  8.20413514
   6.87479242  6.76262587  6.84341180
   9.51225838  9.55558710  6.81564981
   9.59126992  6.81300467  9.56050290
   6.81080614  9.60198705  9.55411036
 


--------------------------------------------------------------------------------------------------------


 k-point   1 :   0.2500 0.2500 0.2500  plane waves:   11597
 k-point   2 :   0.2500 0.2500-0.2500  plane waves:   11595
 k-point   3 :  -0.2500 0.2500 0.2500  plane waves:   11593
 k-point   4 :   0.2500-0.2500 0.2500  plane waves:   11598

 maximum and minimum number of plane-waves per node :       430      396

 maximum number of plane-waves:     11598
 maximum index in each direction: 
   IXMAX=   14   IYMAX=   14   IZMAX=   14
   IXMIN=  -14   IYMIN=  -14   IZMIN=  -14


 real space projection operators:
  total allocation   :       3479.81 KBytes
  max/ min on nodes  :        173.00         76.75


 parallel 3D FFT for wavefunctions:
    minimum data exchange during FFTs selected (reduces bandwidth)
 parallel 3D FFT for charge:
    minimum data exchange during FFTs selected (reduces bandwidth)


 total amount of memory used by VASP MPI-rank0    37813. kBytes
=======================================================================

   base      :      30000. kBytes
   nonlr-proj:       1194. kBytes
   fftplans  :        841. kBytes
   grid      :       1174. kBytes
   one-center:          9. kBytes
   wavefun   :       4595. kBytes
 
     INWAV:  cpu time     19.4894: real time     19.5386
 Broyden mixing: mesh for mixing (old mesh)
   NGX = 29   NGY = 29   NGZ = 29
  (NGX  = 84   NGY  = 84   NGZ  = 84)
  gives a total of  24389 points

 initial charge density was supplied:
 number of electron     256.0000007 magnetization 
 keeping initial charge density in first step


--------------------------------------------------------------------------------------------------------


 Maximum index for non-local projection operator          114
 Maximum index for augmentation-charges          184 (set IRDMAX)


--------------------------------------------------------------------------------------------------------


 First call to EWALD:  gamma=   0.163
 Maximum number of real-space cells 3x 3x 3
 Maximum number of reciprocal cells 3x 3x 3

    FEWALD:  cpu time      0.0788: real time      0.0790


--------------------------------------- Ionic step        1  -------------------------------------------




--------------------------------------- Iteration      1(   1)  ---------------------------------------


    POTLOK:  cpu time      0.3441: real time      0.3455
    SETDIJ:  cpu time      0.1377: real time      0.1380
     EDDAV:  cpu time     39.9465: real time     40.0503
       DOS:  cpu time      0.1225: real time      0.1228
    CHARGE:  cpu time      2.2116: real time      2.2172
    MIXING:  cpu time      0.0189: real time      0.0190
    --------------------------------------------
      LOOP:  cpu time     42.7813: real time     42.8928

 eigenvalue-minimisations  :  1390
 total energy-change (2. order) :-0.3445756E+03  (-0.8197565E-01)
 number of electron     256.0000005 magnetization 
 augmentation part      -14.6512863 magnetization 

 Broyden mixing:
  rms(total) = 0.47268E-01    rms(broyden)= 0.47264E-01
  rms(prec ) = 0.50245E-01
  weight for this iteration     100.00

 Free energy of the ion-electron system (eV)
  ---------------------------------------------------
  alpha Z        PSCENC =       106.72376151
  Ewald energy   TEWEN  =     -7288.69886214
  -Hartree energ DENC   =      -482.36786031
  -exchange      EXHF   =         0.00000000
  -V(xc)+E(xc)   XCENC  =      -575.90880111
  PAW double counting   =     31878.17332791   -30759.38196504
  entropy T*S    EENTRO =        -0.00000000
  eigenvalues    EBANDS =       180.93285585
  atomic energy  EATOM  =      6595.95197522
  Solvation  Ediel_sol  =         0.00000000
  ---------------------------------------------------
  free energy    TOTEN  =      -344.57556811 eV

  energy without entropy =     -344.57556811  energy(sigma->0) =     -344.57556811


--------------------------------------------------------------------------------------------------------




--------------------------------------- Iteration      1(   2)  ---------------------------------------


    POTLOK:  cpu time      0.0457: real time      0.0469
    SETDIJ:  cpu time      0.0387: real time      0.0388
    EDDIAG:  cpu time      6.8343: real time      6.8520
  RMM-DIIS:  cpu time     17.1855: real time     17.2291
    ORTHCH:  cpu time      0.3511: real time      0.3522
       DOS:  cpu time      0.0678: real time      0.0679
    CHARGE:  cpu time      2.1115: real time      2.1169
    MIXING:  cpu time      0.2523: real time      0.2530
    --------------------------------------------
      LOOP:  cpu time     26.8869: real time     26.9567

 eigenvalue-minimisations  :  1319
 total energy-change (2. order) :-0.3482795E-02  (-0.4055203E-02)
 number of electron     256.0000005 magnetization 
 augmentation part      -14.6523987 magnetization 

 Broyden mixing:
  rms(total) = 0.17794E-01    rms(broyden)= 0.17792E-01
  rms(prec ) = 0.21177E-01
  weight for this iteration     100.00

 eigenvalues of (default mixing * dielectric matrix)
  average eigenvalue GAMMA=   1.3336
  1.3336

 Free energy of the ion-electron system (eV)
  ---------------------------------------------------
  alpha Z        PSCENC =       106.72376151
  Ewald energy   TEWEN  =     -7288.69886214
  -Hartree energ DENC   =      -482.47518755
  -exchange      EXHF   =         0.00000000
  -V(xc)+E(xc)   XCENC  =      -575.90691067
  PAW double counting   =     31859.51991927   -30740.72219472
  entropy T*S    EENTRO =        -0.00000000
  eigenvalues    EBANDS =       181.02844817
  atomic energy  EATOM  =      6595.95197522
  Solvation  Ediel_sol  =         0.00000000
  ---------------------------------------------------
  free energy    TOTEN  =      -344.57905091 eV

  energy without entropy =     -344.57905091  energy(sigma->0) =     -344.57905091


--------------------------------------------------------------------------------------------------------




--------------------------------------- Iteration      1(   3)  ---------------------------------------


    POTLOK:  cpu time      0.3940: real time      0.3952
    SETDIJ:  cpu time      0.0019: real time      0.0019
    EDDIAG:  cpu time      7.5011: real time      7.5205
  RMM-DIIS:  cpu time     23.6918: real time     23.7516
    ORTHCH:  cpu time      0.2483: real time      0.2489
       DOS:  cpu time      0.0313: real time      0.0314
    CHARGE:  cpu time      1.4817: real time      1.4856
    MIXING:  cpu time      0.2454: real time      0.2460
    --------------------------------------------
      LOOP:  cpu time     33.5955: real time     33.6811

 eigenvalue-minimisations  :  1508
 total energy-change (2. order) :-0.3825039E-03  (-0.6862587E-03)
 number of electron     256.0000005 magnetization 
 augmentation part      -14.6521445 magnetization 

 Broyden mixing:
  rms(total) = 0.84173E-02    rms(broyden)= 0.84168E-02
  rms(prec ) = 0.99538E-02
  weight for this iteration     100.00

 eigenvalues of (default mixing * dielectric matrix)
  average eigenvalue GAMMA=   1.6777
  1.6777  1.6777

 Free energy of the ion-electron system (eV)
  ---------------------------------------------------
  alpha Z        PSCENC =       106.72376151
  Ewald energy   TEWEN  =     -7288.69886214
  -Hartree energ DENC   =      -482.58611762
  -exchange      EXHF   =         0.00000000
  -V(xc)+E(xc)   XCENC  =      -575.90419508
  PAW double counting   =     31839.98699457   -30721.18487291
  entropy T*S    EENTRO =        -0.00000000
  eigenvalues    EBANDS =       181.13188305
  atomic energy  EATOM  =      6595.95197522
  Solvation  Ediel_sol  =         0.00000000
  ---------------------------------------------------
  free energy    TOTEN  =      -344.57943341 eV

  energy without entropy =     -344.57943341  energy(sigma->0) =     -344.57943341


--------------------------------------------------------------------------------------------------------




--------------------------------------- Iteration      1(   4)  ---------------------------------------


    POTLOK:  cpu time      0.1194: real time      0.1205
    SETDIJ:  cpu time      0.1112: real time      0.1114
    EDDIAG:  cpu time      6.3954: real time      6.4124
  RMM-DIIS:  cpu time     25.1293: real time     25.1926
    ORTHCH:  cpu time      0.3492: real time      0.3500
       DOS:  cpu time      0.1047: real time      0.1050
    CHARGE:  cpu time      1.9610: real time      1.9660
    MIXING:  cpu time      0.3738: real time      0.3749
    --------------------------------------------
      LOOP:  cpu time     34.5440: real time     34.6329

 eigenvalue-minimisations  :  1570
 total energy-change (2. order) :-0.6693062E-04  (-0.1245148E-03)
 number of electron     256.0000005 magnetization 
 augmentation part      -14.6520077 magnetization 

 Broyden mixing:
  rms(total) = 0.39323E-02    rms(broyden)= 0.39321E-02
  rms(prec ) = 0.44050E-02
  weight for this iteration     100.00

 eigenvalues of (default mixing * dielectric matrix)
  average eigenvalue GAMMA=   1.7535
  1.0129  1.8204  2.4272

 Free energy of the ion-electron system (eV)
  ---------------------------------------------------
  alpha Z        PSCENC =       106.72376151
  Ewald energy   TEWEN  =     -7288.69886214
  -Hartree energ DENC   =      -482.63855939
  -exchange      EXHF   =         0.00000000
  -V(xc)+E(xc)   XCENC  =      -575.90466183
  PAW double counting   =     31827.78588623   -30708.97968164
  entropy T*S    EENTRO =        -0.00000000
  eigenvalues    EBANDS =       181.18064170
  atomic energy  EATOM  =      6595.95197522
  Solvation  Ediel_sol  =         0.00000000
  ---------------------------------------------------
  free energy    TOTEN  =      -344.57950034 eV

  energy without entropy =     -344.57950034  energy(sigma->0) =     -344.57950034


--------------------------------------------------------------------------------------------------------




--------------------------------------- Iteration      1(   5)  ---------------------------------------


    POTLOK:  cpu time      0.6156: real time      0.6171
    SETDIJ:  cpu time      0.0967: real time      0.0969
    EDDIAG:  cpu time      8.1925: real time      8.2134
  RMM-DIIS:  cpu time     18.8922: real time     18.9400
    ORTHCH:  cpu time      0.5232: real time      0.5247
       DOS:  cpu time      0.0322: real time      0.0323
    --------------------------------------------
      LOOP:  cpu time     28.3524: real time     28.4243

 eigenvalue-minimisations  :  1029
 total energy-change (2. order) :-0.1204809E-04  (-0.2244958E-04)
 number of electron     256.0000005 magnetization 
 augmentation part      -14.6520077 magnetization 

 Free energy of the ion-electron system (eV)
  ---------------------------------------------------
  alpha Z        PSCENC =       106.72376151
  Ewald energy   TEWEN  =     -7288.69886214
  -Hartree energ DENC   =      -482.66204976
  -exchange      EXHF   =         0.00000000
  -V(xc)+E(xc)   XCENC  =      -575.90522987
  PAW double counting   =     31823.83464371   -30705.02593311
  entropy T*S    EENTRO =        -0.00000000
  eigenvalues    EBANDS =       181.20218204
  atomic energy  EATOM  =      6595.95197522
  Solvation  Ediel_sol  =         0.00000000
  ---------------------------------------------------
  free energy    TOTEN  =      -344.57951239 eV

  energy without entropy =     -344.57951239  energy(sigma->0) =     -344.57951239


--------------------------------------------------------------------------------------------------------




 average (electrostatic) potential at core
  the test charge radii are     0.9892
  (the norm of the test charge is              1.0000)
       1 -83.3627       2 -83.3181       3 -83.3994       4 -83.3418       5 -83.3847
       6 -83.3542       7 -83.3657       8 -83.3279       9 -83.3796      10 -83.3685
      11 -83.2814      12 -83.3527      13 -83.3245      14 -83.3931      15 -83.3325
      16 -83.3364      17 -83.3202      18 -83.3918      19 -83.3405      20 -83.3203
      21 -83.3513      22 -83.3693      23 -83.3349      24 -83.3877      25 -83.3637
      26 -83.3363      27 -83.3668      28 -83.3890      29 -83.3966      30 -83.3096
      31 -83.3496      32 -83.3495      33 -83.3567      34 -83.3741      35 -83.3314
      36 -83.3345      37 -83.3204      38 -83.3454      39 -83.3107      40 -83.3957
      41 -83.3789      42 -83.3356      43 -83.3542      44 -83.4002      45 -83.3741
      46 -83.3534      47 -83.4141      48 -83.3118      49 -83.3342      50 -83.3872
      51 -83.3874      52 -83.3424      53 -83.3401      54 -83.3660      55 -83.3373
      56 -83.3520      57 -83.3492      58 -83.3287      59 -83.3442      60 -83.3421
      61 -83.3589      62 -83.3418      63 -83.3579      64 -83.3646
 
 
 
 E-fermi :   5.9747     XC(G=0):  -9.3801     alpha+bet :-11.8811

 Fermi energy:         5.9747076590

 k-point     1 :       0.2500    0.2500    0.2500
  band No.  band energies     occupation 
      1      -5.9777      2.00000
      2      -5.5252      2.00000
      3      -5.4298      2.00000
      4      -5.3759      2.00000
      5      -5.0125      2.00000
      6      -4.9313      2.00000
      7      -4.8769      2.00000
      8      -4.5255      2.00000
      9      -4.4612      2.00000
     10      -4.3995      2.00000
     11      -4.3310      2.00000
     12      -4.0663      2.00000
     13      -4.0221      2.00000
     14      -4.0029      2.00000
     15      -3.9532      2.00000
     16      -3.8992      2.00000
     17      -3.8773      2.00000
     18      -3.7970      2.00000
     19      -3.7583      2.00000
     20      -3.7275      2.00000
     21      -3.3378      2.00000
     22      -3.2686      2.00000
     23      -3.2100      2.00000
     24      -2.9428      2.00000
     25      -2.9045      2.00000
     26      -2.8771      2.00000
     27      -2.7929      2.00000
     28      -2.7455      2.00000
     29      -2.7285      2.00000
     30      -2.6852      2.00000
     31      -2.6520      2.00000
     32      -2.6291      2.00000
     33      -1.2585      2.00000
     34      -1.2489      2.00000
     35      -1.2193      2.00000
     36      -1.1846      2.00000
     37      -1.1543      2.00000
     38      -1.1265      2.00000
     39      -1.0972      2.00000
     40      -1.0708      2.00000
     41      -1.0381      2.00000
     42      -0.9779      2.00000
     43      -0.9556      2.00000
     44      -0.9319      2.00000
     45      -0.9117      2.00000
     46      -0.8048      2.00000
     47      -0.7566      2.00000
     48      -0.1869      2.00000
     49      -0.1434      2.00000
     50      -0.1171      2.00000
     51      -0.0833      2.00000
     52      -0.0417      2.00000
     53      -0.0171      2.00000
     54       0.0066      2.00000
     55       0.7311      2.00000
     56       0.8386      2.00000
     57       0.8815      2.00000
     58       1.1024      2.00000
     59       1.1410      2.00000
     60       1.1528      2.00000
     61       1.6583      2.00000
     62       1.6720      2.00000
     63       1.6856      2.00000
     64       1.7185      2.00000
     65       1.7404      2.00000
     66       1.7530      2.00000
     67       1.7847      2.00000
     68       1.8133      2.00000
     69       1.8239      2.00000
     70       2.2958      2.00000
     71       2.3210      2.00000
     72       2.3311      2.00000
     73       2.3653      2.00000
     74       2.3909      2.00000
     75       2.4098      2.00000
     76       2.4434      2.00000
     77       2.4593      2.00000
     78       2.5087      2.00000
     79       2.5335      2.00000
     80       2.5375      2.00000
     81       2.5790      2.00000
     82       2.7400      2.00000
     83       2.7587      2.00000
     84       2.8047      2.00000
     85       2.8418      2.00000
     86       2.8642      2.00000
     87       2.8778      2.00000
     88       3.0316      2.00000
     89       3.0419      2.00000
     90       3.0929      2.00000
     91       3.1107      2.00000
     92       3.1312      2.00000
     93       3.1824      2.00000
     94       3.3743      2.00000
     95       3.4221      2.00000
     96       3.4642      2.00000
     97       3.4895      2.00000
     98       3.5071      2.00000
     99       3.5355      2.00000
    100       3.5472      2.00000
    101       3.5805      2.00000
    102       3.6007      2.00000
    103       3.7438      2.00000
    104       3.7853      2.00000
    105       3.8226      2.00000
    106       3.8379      2.00000
    107       3.8631      2.00000
    108       3.8828      2.00000
    109       3.9062      2.00000
    110       3.9263      2.00000
    111       3.9567      2.00000
    112       4.1565      2.00000
    113       4.2031      2.00000
    114       4.2383      2.00000
    115       4.2601      2.00000
    116       4.4054      2.00000
    117       4.4416      2.00000
    118       4.4587      2.00000
    119       4.4798      2.00000
    120       4.5742      2.00000
    121       4.6248      2.00000
    122       4.6810      2.00000
    123       4.7038      2.00000
    124       4.9613      2.00000
    125       5.0154      2.00000
    126       5.0651      2.00000
    127       5.4744      2.00000
    128       5.5070      2.00000
    129       6.6197      0.00000
    130       6.6289      0.00000
    131       6.6809      0.00000
    132       7.0613      0.00000
    133       7.0824      0.00000
    134       7.1319      0.00000
    135       7.3604      0.00000
    136       7.5566      0.00000
    137       7.5614      0.00000
    138       7.6045      0.00000
    139       7.6696      0.00000
    140       7.6840      0.00000
    141       7.7319      0.00000
    142       7.8230      0.00000
    143       7.8304      0.00000
    144       7.8752      0.00000
    145       7.9131      0.00000
    146       7.9287      0.00000
    147       7.9567      0.00000
    148       8.0244      0.00000
    149       8.1087      0.00000
    150       8.1248      0.00000
    151       8.1626      0.00000
    152       8.1848      0.00000
    153       8.2094      0.00000
    154       8.2462      0.00000
    155       8.4024      0.00000
    156       8.4239      0.00000
    157       8.4417      0.00000
    158       8.4946      0.00000
    159       8.5339      0.00000
    160       8.5667      0.00000
    161       8.5895      0.00000

 k-point     2 :       0.2500    0.2500   -0.2500
  band No.  band energies     occupation 
      1      -5.9788      2.00000
      2      -5.4998      2.00000
      3      -5.4351      2.00000
      4      -5.4029      2.00000
      5      -4.9891      2.00000
      6      -4.9311      2.00000
      7      -4.9062      2.00000
      8      -4.5183      2.00000
      9      -4.4228      2.00000
     10      -4.3808      2.00000
     11      -4.3642      2.00000
     12      -4.0509      2.00000
     13      -4.0187      2.00000
     14      -3.9935      2.00000
     15      -3.9687      2.00000
     16      -3.9540      2.00000
     17      -3.8978      2.00000
     18      -3.7913      2.00000
     19      -3.7479      2.00000
     20      -3.7106      2.00000
     21      -3.3231      2.00000
     22      -3.2498      2.00000
     23      -3.2249      2.00000
     24      -2.9367      2.00000
     25      -2.9190      2.00000
     26      -2.8653      2.00000
     27      -2.7855      2.00000
     28      -2.7653      2.00000
     29      -2.7196      2.00000
     30      -2.7047      2.00000
     31      -2.6515      2.00000
     32      -2.6151      2.00000
     33      -1.2790      2.00000
     34      -1.2477      2.00000
     35      -1.2220      2.00000
     36      -1.2016      2.00000
     37      -1.1628      2.00000
     38      -1.1264      2.00000
     39      -1.1126      2.00000
     40      -1.0597      2.00000
     41      -1.0140      2.00000
     42      -0.9638      2.00000
     43      -0.9322      2.00000
     44      -0.8994      2.00000
     45      -0.8823      2.00000
     46      -0.8388      2.00000
     47      -0.7922      2.00000
     48      -0.1976      2.00000
     49      -0.1531      2.00000
     50      -0.1134      2.00000
     51      -0.0726      2.00000
     52      -0.0499      2.00000
     53      -0.0216      2.00000
     54       0.0333      2.00000
     55       0.7605      2.00000
     56       0.8092      2.00000
     57       0.8520      2.00000
     58       1.1170      2.00000
     59       1.1264      2.00000
     60       1.1553      2.00000
     61       1.6491      2.00000
     62       1.6734      2.00000
     63       1.6968      2.00000
     64       1.7165      2.00000
     65       1.7408      2.00000
     66       1.7590      2.00000
     67       1.7744      2.00000
     68       1.7935      2.00000
     69       1.8364      2.00000
     70       2.2854      2.00000
     71       2.2998      2.00000
     72       2.3397      2.00000
     73       2.3641      2.00000
     74       2.3987      2.00000
     75       2.4171      2.00000
     76       2.4547      2.00000
     77       2.4904      2.00000
     78       2.5009      2.00000
     79       2.5281      2.00000
     80       2.5610      2.00000
     81       2.5809      2.00000
     82       2.7555      2.00000
     83       2.7817      2.00000
     84       2.8125      2.00000
     85       2.8307      2.00000
     86       2.8477      2.00000
     87       2.8776      2.00000
     88       3.0418      2.00000
     89       3.0774      2.00000
     90       3.0904      2.00000
     91       3.0993      2.00000
     92       3.1275      2.00000
     93       3.1560      2.00000
     94       3.3788      2.00000
     95       3.4110      2.00000
     96       3.4480      2.00000
     97       3.4627      2.00000
     98       3.4986      2.00000
     99       3.5373      2.00000
    100       3.5493      2.00000
    101       3.5768      2.00000
    102       3.6108      2.00000
    103       3.7689      2.00000
    104       3.7881      2.00000
    105       3.8130      2.00000
    106       3.8386      2.00000
    107       3.8684      2.00000
    108       3.8774      2.00000
    109       3.9063      2.00000
    110       3.9364      2.00000
    111       3.9513      2.00000
    112       4.1504      2.00000
    113       4.1994      2.00000
    114       4.2174      2.00000
    115       4.2460      2.00000
    116       4.4098      2.00000
    117       4.4200      2.00000
    118       4.4891      2.00000
    119       4.5076      2.00000
    120       4.5631      2.00000
    121       4.5846      2.00000
    122       4.6948      2.00000
    123       4.7180      2.00000
    124       4.9750      2.00000
    125       4.9855      2.00000
    126       5.0693      2.00000
    127       5.4918      2.00000
    128       5.5073      2.00000
    129       6.6283      0.00000
    130       6.6418      0.00000
    131       6.6597      0.00000
    132       7.0484      0.00000
    133       7.0820      0.00000
    134       7.1346      0.00000
    135       7.3606      0.00000
    136       7.5565      0.00000
    137       7.5746      0.00000
    138       7.5951      0.00000
    139       7.6657      0.00000
    140       7.6926      0.00000
    141       7.7220      0.00000
    142       7.8377      0.00000
    143       7.8589      0.00000
    144       7.8804      0.00000
    145       7.9033      0.00000
    146       7.9373      0.00000
    147       7.9480      0.00000
    148       8.0686      0.00000
    149       8.0836      0.00000
    150       8.1248      0.00000
    151       8.1434      0.00000
    152       8.1755      0.00000
    153       8.2048      0.00000
    154       8.2455      0.00000
    155       8.4020      0.00000
    156       8.4260      0.00000
    157       8.4441      0.00000
    158       8.4993      0.00000
    159       8.5452      0.00000
    160       8.5803      0.00000
    161       8.6272      0.00000

 k-point     3 :      -0.2500    0.2500    0.2500
  band No.  band energies     occupation 
      1      -5.9788      2.00000
      2      -5.4998      2.00000
      3      -5.4393      2.00000
      4      -5.3997      2.00000
      5      -4.9855      2.00000
      6      -4.9335      2.00000
      7      -4.8971      2.00000
      8      -4.5166      2.00000
      9      -4.4434      2.00000
     10      -4.3876      2.00000
     11      -4.3658      2.00000
     12      -4.0362      2.00000
     13      -4.0301      2.00000
     14      -3.9982      2.00000
     15      -3.9925      2.00000
     16      -3.9338      2.00000
     17      -3.8982      2.00000
     18      -3.7748      2.00000
     19      -3.7160      2.00000
     20      -3.6995      2.00000
     21      -3.3270      2.00000
     22      -3.2824      2.00000
     23      -3.2296      2.00000
     24      -2.9679      2.00000
     25      -2.9166      2.00000
     26      -2.8652      2.00000
     27      -2.7760      2.00000
     28      -2.7521      2.00000
     29      -2.7174      2.00000
     30      -2.7018      2.00000
     31      -2.6423      2.00000
     32      -2.6166      2.00000
     33      -1.2870      2.00000
     34      -1.2424      2.00000
     35      -1.2269      2.00000
     36      -1.1861      2.00000
     37      -1.1716      2.00000
     38      -1.1495      2.00000
     39      -1.0760      2.00000
     40      -1.0595      2.00000
     41      -1.0075      2.00000
     42      -0.9674      2.00000
     43      -0.9367      2.00000
     44      -0.9219      2.00000
     45      -0.8981      2.00000
     46      -0.8620      2.00000
     47      -0.7342      2.00000
     48      -0.1967      2.00000
     49      -0.1567      2.00000
     50      -0.1166      2.00000
     51      -0.0835      2.00000
     52      -0.0541      2.00000
     53      -0.0395      2.00000
     54       0.0476      2.00000
     55       0.7718      2.00000
     56       0.7995      2.00000
     57       0.8788      2.00000
     58       1.1125      2.00000
     59       1.1397      2.00000
     60       1.1538      2.00000
     61       1.6686      2.00000
     62       1.6776      2.00000
     63       1.6903      2.00000
     64       1.7050      2.00000
     65       1.7354      2.00000
     66       1.7552      2.00000
     67       1.7621      2.00000
     68       1.8088      2.00000
     69       1.8363      2.00000
     70       2.2826      2.00000
     71       2.3253      2.00000
     72       2.3407      2.00000
     73       2.3746      2.00000
     74       2.3980      2.00000
     75       2.4177      2.00000
     76       2.4296      2.00000
     77       2.4651      2.00000
     78       2.4895      2.00000
     79       2.5249      2.00000
     80       2.5437      2.00000
     81       2.5928      2.00000
     82       2.7596      2.00000
     83       2.7744      2.00000
     84       2.8040      2.00000
     85       2.8360      2.00000
     86       2.8441      2.00000
     87       2.8649      2.00000
     88       3.0467      2.00000
     89       3.0717      2.00000
     90       3.0927      2.00000
     91       3.1021      2.00000
     92       3.1207      2.00000
     93       3.1416      2.00000
     94       3.3846      2.00000
     95       3.4037      2.00000
     96       3.4587      2.00000
     97       3.4840      2.00000
     98       3.4979      2.00000
     99       3.5262      2.00000
    100       3.5414      2.00000
    101       3.5802      2.00000
    102       3.6110      2.00000
    103       3.7764      2.00000
    104       3.7925      2.00000
    105       3.8246      2.00000
    106       3.8404      2.00000
    107       3.8642      2.00000
    108       3.8815      2.00000
    109       3.9183      2.00000
    110       3.9418      2.00000
    111       3.9598      2.00000
    112       4.1556      2.00000
    113       4.1939      2.00000
    114       4.2127      2.00000
    115       4.2477      2.00000
    116       4.3956      2.00000
    117       4.4368      2.00000
    118       4.4825      2.00000
    119       4.5054      2.00000
    120       4.5720      2.00000
    121       4.6250      2.00000
    122       4.6907      2.00000
    123       4.7147      2.00000
    124       4.9310      2.00000
    125       5.0075      2.00000
    126       5.0709      2.00000
    127       5.4790      2.00000
    128       5.5008      2.00000
    129       6.6287      0.00000
    130       6.6355      0.00000
    131       6.6698      0.00000
    132       7.0389      0.00000
    133       7.1035      0.00000
    134       7.1472      0.00000
    135       7.3656      0.00000
    136       7.5390      0.00000
    137       7.5720      0.00000
    138       7.6269      0.00000
    139       7.6531      0.00000
    140       7.6737      0.00000
    141       7.7167      0.00000
    142       7.8488      0.00000
    143       7.8568      0.00000
    144       7.8811      0.00000
    145       7.9063      0.00000
    146       7.9253      0.00000
    147       7.9635      0.00000
    148       8.0605      0.00000
    149       8.0778      0.00000
    150       8.1146      0.00000
    151       8.1402      0.00000
    152       8.1613      0.00000
    153       8.2189      0.00000
    154       8.2300      0.00000
    155       8.3973      0.00000
    156       8.4283      0.00000
    157       8.4645      0.00000
    158       8.4980      0.00000
    159       8.5341      0.00000
    160       8.5592      0.00000
    161       8.5885      0.00000

 k-point     4 :       0.2500   -0.2500    0.2500
  band No.  band energies     occupation 
      1      -5.9771      2.00000
      2      -5.5300      2.00000
      3      -5.4245      2.00000
      4      -5.3767      2.00000
      5      -5.0216      2.00000
      6      -4.9261      2.00000
      7      -4.8750      2.00000
      8      -4.5250      2.00000
      9      -4.4497      2.00000
     10      -4.3937      2.00000
     11      -4.3292      2.00000
     12      -4.0723      2.00000
     13      -4.0314      2.00000
     14      -4.0002      2.00000
     15      -3.9616      2.00000
     16      -3.9245      2.00000
     17      -3.8654      2.00000
     18      -3.7858      2.00000
     19      -3.7605      2.00000
     20      -3.7386      2.00000
     21      -3.3247      2.00000
     22      -3.2512      2.00000
     23      -3.2043      2.00000
     24      -2.9565      2.00000
     25      -2.9139      2.00000
     26      -2.8650      2.00000
     27      -2.7825      2.00000
     28      -2.7567      2.00000
     29      -2.7385      2.00000
     30      -2.6978      2.00000
     31      -2.6538      2.00000
     32      -2.6098      2.00000
     33      -1.2816      2.00000
     34      -1.2493      2.00000
     35      -1.2255      2.00000
     36      -1.1998      2.00000
     37      -1.1660      2.00000
     38      -1.1277      2.00000
     39      -1.0686      2.00000
     40      -1.0511      2.00000
     41      -1.0108      2.00000
     42      -0.9773      2.00000
     43      -0.9317      2.00000
     44      -0.9146      2.00000
     45      -0.9006      2.00000
     46      -0.8390      2.00000
     47      -0.7986      2.00000
     48      -0.2015      2.00000
     49      -0.1338      2.00000
     50      -0.1046      2.00000
     51      -0.0845      2.00000
     52      -0.0469      2.00000
     53      -0.0108      2.00000
     54       0.0152      2.00000
     55       0.7598      2.00000
     56       0.7966      2.00000
     57       0.8624      2.00000
     58       1.1073      2.00000
     59       1.1347      2.00000
     60       1.1525      2.00000
     61       1.6373      2.00000
     62       1.6897      2.00000
     63       1.7034      2.00000
     64       1.7204      2.00000
     65       1.7433      2.00000
     66       1.7486      2.00000
     67       1.7850      2.00000
     68       1.7963      2.00000
     69       1.8168      2.00000
     70       2.2868      2.00000
     71       2.3032      2.00000
     72       2.3444      2.00000
     73       2.3801      2.00000
     74       2.3984      2.00000
     75       2.4368      2.00000
     76       2.4452      2.00000
     77       2.4825      2.00000
     78       2.4986      2.00000
     79       2.5139      2.00000
     80       2.5630      2.00000
     81       2.5841      2.00000
     82       2.7507      2.00000
     83       2.7638      2.00000
     84       2.8038      2.00000
     85       2.8340      2.00000
     86       2.8679      2.00000
     87       2.8841      2.00000
     88       3.0400      2.00000
     89       3.0732      2.00000
     90       3.0849      2.00000
     91       3.1141      2.00000
     92       3.1350      2.00000
     93       3.1694      2.00000
     94       3.3825      2.00000
     95       3.3935      2.00000
     96       3.4461      2.00000
     97       3.4871      2.00000
     98       3.4936      2.00000
     99       3.5244      2.00000
    100       3.5635      2.00000
    101       3.5818      2.00000
    102       3.5975      2.00000
    103       3.7578      2.00000
    104       3.7783      2.00000
    105       3.7990      2.00000
    106       3.8239      2.00000
    107       3.8693      2.00000
    108       3.8876      2.00000
    109       3.9018      2.00000
    110       3.9246      2.00000
    111       3.9496      2.00000
    112       4.1534      2.00000
    113       4.1961      2.00000
    114       4.2333      2.00000
    115       4.2461      2.00000
    116       4.4118      2.00000
    117       4.4499      2.00000
    118       4.4708      2.00000
    119       4.5025      2.00000
    120       4.5376      2.00000
    121       4.5835      2.00000
    122       4.6925      2.00000
    123       4.7177      2.00000
    124       4.9765      2.00000
    125       5.0168      2.00000
    126       5.0616      2.00000
    127       5.5032      2.00000
    128       5.5110      2.00000
    129       6.6284      0.00000
    130       6.6392      0.00000
    131       6.6492      0.00000
    132       7.0559      0.00000
    133       7.0918      0.00000
    134       7.1351      0.00000
    135       7.3513      0.00000
    136       7.5396      0.00000
    137       7.5698      0.00000
    138       7.6196      0.00000
    139       7.6594      0.00000
    140       7.6916      0.00000
    141       7.7316      0.00000
    142       7.8220      0.00000
    143       7.8599      0.00000
    144       7.8873      0.00000
    145       7.8971      0.00000
    146       7.9262      0.00000
    147       7.9557      0.00000
    148       8.0365      0.00000
    149       8.0846      0.00000
    150       8.0984      0.00000
    151       8.1534      0.00000
    152       8.1867      0.00000
    153       8.2386      0.00000
    154       8.2526      0.00000
    155       8.3984      0.00000
    156       8.4175      0.00000
    157       8.4449      0.00000
    158       8.5112      0.00000
    159       8.5477      0.00000
    160       8.5779      0.00000
    161       8.6084      0.00000


--------------------------------------------------------------------------------------------------------


 soft charge-density along one line, spin component           1
         0         1         2         3         4         5         6         7         8         9
 total charge-density along one line
 
 pseudopotential strength for first ion, spin component:           1
 18.427  25.709   0.000   0.001   0.001   0.000   0.002   0.002
 25.709  35.873   0.000   0.001   0.001   0.000   0.002   0.002
  0.000   0.000   4.180   0.000  -0.000   7.790   0.000  -0.000
  0.001   0.001   0.000   4.180   0.000   0.000   7.790   0.000
  0.001   0.001  -0.000   0.000   4.180  -0.000   0.000   7.790
  0.000   0.000   7.790   0.000  -0.000  14.527   0.000  -0.000
  0.002   0.002   0.000   7.790   0.000   0.000  14.526   0.000
  0.002   0.002  -0.000   0.000   7.790  -0.000   0.000  14.526
 total augmentation occupancy for first ion, spin component:           1
  5.992  -2.312   0.076  -0.088   0.035  -0.028   0.032  -0.011
 -2.312   1.002  -0.028   0.059  -0.013   0.011  -0.018   0.005
  0.076  -0.028   3.257   0.059   0.021  -0.782  -0.019  -0.008
 -0.088   0.059   0.059   3.358   0.112  -0.019  -0.819  -0.033
  0.035  -0.013   0.021   0.112   3.335  -0.008  -0.033  -0.811
 -0.028   0.011  -0.782  -0.019  -0.008   0.196   0.006   0.003
  0.032  -0.018  -0.019  -0.819  -0.033   0.006   0.208   0.010
 -0.011   0.005  -0.008  -0.033  -0.811   0.003   0.010   0.205


------------------------ aborting loop because EDIFF is reached ----------------------------------------


    CHARGE:  cpu time      0.6481: real time      0.6500
    FORLOC:  cpu time      0.0146: real time      0.0147
    FORNL :  cpu time     11.3579: real time     11.3865
    STRESS:  cpu time     23.5302: real time     23.5899
    FORCOR:  cpu time      0.1389: real time      0.1393
    FORHAR:  cpu time      0.0745: real time      0.0747
    MIXING:  cpu time      0.3951: real time      0.3960
    OFIELD:  cpu time      0.0000: real time      0.0000

  FORCE on cell =-STRESS in cart. coord.  units (eV):
  Direction    XX          YY          ZZ          XY          YZ          ZX
  --------------------------------------------------------------------------------------
  Alpha Z   106.72376   106.72376   106.72376
  Ewald   -2431.77671 -2429.73464 -2427.23277    -2.85313    -8.58302     6.02876
  Hartree   160.39991   160.83905   161.42075    -0.58304    -1.22335     1.55449
  E(xc)    -810.75663  -810.76926  -810.79698     0.01657     0.07784    -0.04028
  Local    -942.21344  -944.54330  -947.58656     3.32553     9.53909    -7.57429
  n-local  2491.49205  2491.80933  2492.33833    -0.43807    -1.76390     0.94985
  augment  -372.11918  -372.13733  -372.17508     0.02708     0.11422    -0.07453
  Kinetic  1807.40642  1807.22541  1807.30980     0.15331     0.55274    -0.21654
  Fock        0.00000     0.00000     0.00000     0.00000     0.00000     0.00000
  -------------------------------------------------------------------------------------
  Total       9.15619     9.41302    10.00125    -0.35177    -1.28638     0.62746
  in kB      11.35460    11.67310    12.40256    -0.43623    -1.59525     0.77812
  external pressure =       11.81 kB  Pullay stress =        0.00 kB


 VOLUME and BASIS-vectors are now :
 -----------------------------------------------------------------------------
  energy-cutoff  :      250.00
  volume of cell :     1291.97
      direct lattice vectors                 reciprocal lattice vectors
    10.890446220  0.000000000  0.000000000     0.091823602 -0.000002801  0.000062728
     0.000332310 10.893026500  0.000000000     0.000000000  0.091801851 -0.000081228
    -0.007439550  0.009636310 10.890782730     0.000000000  0.000000000  0.091820765

  length of vectors
    10.890446220 10.893026505 10.890789534     0.091823624  0.091801887  0.091820765


 FORCES acting on ions
    electron-ion (+dipol)            ewald-force                    non-local-force                 convergence-correction
 -----------------------------------------------------------------------------------------------
   0.212E+01 0.461E+00 -.321E+01   -.212E+01 -.111E+00 0.289E+01   -.356E+00 -.810E+00 0.279E+00   -.199E-02 -.111E-02 -.852E-03
   0.169E+01 0.142E+00 0.203E+01   -.122E+01 -.158E-01 -.159E+01   -.241E-01 -.585E+00 -.360E+00   -.532E-03 -.249E-02 -.972E-03
   0.349E+01 0.514E+01 -.497E+01   -.311E+01 -.457E+01 0.449E+01   -.702E+00 -.118E+01 0.101E+01   -.419E-03 -.114E-02 -.965E-03
   0.132E+01 0.473E+01 0.408E+01   -.127E+01 -.386E+01 -.345E+01   -.260E+00 -.163E+01 -.690E+00   -.144E-02 -.458E-03 0.571E-03
   0.396E+01 -.345E+01 -.375E+01   -.364E+01 0.316E+01 0.326E+01   -.872E+00 0.126E+01 0.247E+00   -.394E-03 -.204E-02 -.344E-03
   0.965E+00 -.657E+01 -.215E+01   -.133E+01 0.614E+01 0.180E+01   0.810E-01 0.132E+01 0.410E+00   0.313E-03 -.695E-03 -.558E-03
   0.158E+01 -.858E+00 -.482E+01   -.166E+01 0.935E+00 0.450E+01   -.326E+00 0.193E+00 0.103E+01   0.144E-03 -.182E-02 -.679E-03
   -.240E+01 -.686E-01 -.530E+01   0.226E+01 0.723E-01 0.419E+01   0.586E+00 0.338E+00 0.195E+01   -.177E-02 -.868E-03 -.102E-02
   -.387E+01 -.654E+01 -.364E+00   0.363E+01 0.610E+01 -.122E+00   0.646E+00 0.155E+01 0.655E+00   -.301E-02 -.101E-02 0.390E-03
   -.290E+00 -.221E+01 0.497E+01   0.141E+00 0.184E+01 -.433E+01   0.165E+00 0.689E+00 -.105E+01   -.525E-03 -.148E-02 0.453E-03
   -.360E+01 -.854E+00 0.989E+00   0.348E+01 0.847E+00 -.112E+01   0.651E+00 0.301E+00 -.598E+00   -.112E-03 -.771E-03 -.173E-03
   0.365E+01 0.115E+01 0.480E+00   -.305E+01 -.131E+01 -.555E+00   -.191E+01 -.307E+00 0.180E+00   -.105E-02 -.206E-02 0.872E-03
   0.902E+00 0.489E+01 0.399E+01   -.515E+00 -.417E+01 -.353E+01   -.946E+00 -.149E+01 -.694E+00   -.414E-03 -.203E-02 0.174E-02
   0.191E+01 0.127E+01 -.148E+01   -.159E+01 -.931E+00 0.912E+00   -.340E+00 0.130E-01 0.909E+00   -.882E-04 0.136E-03 0.677E-03
   -.190E+01 -.219E+01 0.227E+01   0.168E+01 0.212E+01 -.235E+01   -.365E-01 0.283E+00 0.810E-01   -.292E-03 -.220E-02 -.102E-02
   -.678E+00 0.464E-01 -.307E+01   0.767E+00 -.110E-01 0.253E+01   0.209E+00 0.343E+00 0.393E+00   -.626E-03 -.942E-03 -.120E-02
   -.294E+01 0.324E+01 -.431E+01   0.243E+01 -.277E+01 0.399E+01   0.520E+00 -.964E+00 0.126E+01   -.255E-02 0.137E-02 -.232E-03
   -.953E+00 0.319E+01 0.634E+00   0.819E+00 -.302E+01 -.550E+00   0.521E+00 -.522E+00 -.435E+00   0.584E-04 0.253E-02 -.211E-03
   -.512E+01 -.131E+01 -.177E+00   0.466E+01 0.105E+01 0.487E+00   0.132E+01 0.476E+00 -.446E+00   -.939E-03 0.126E-02 0.804E-03
   0.487E+00 -.385E+01 0.225E+01   -.313E+00 0.364E+01 -.221E+01   0.213E-01 0.133E+01 -.297E+00   -.200E-02 0.151E-02 -.580E-03
   -.396E+01 0.118E+01 -.112E+01   0.369E+01 -.115E+01 0.122E+01   0.746E+00 -.598E+00 -.333E+00   -.246E-02 0.264E-02 0.747E-03
   0.152E+01 0.596E+01 -.719E+00   -.153E+01 -.566E+01 0.722E+00   -.546E+00 -.105E+01 0.722E+00   -.667E-03 0.278E-03 -.562E-03
   0.239E+01 0.383E+01 0.145E+01   -.243E+01 -.367E+01 -.123E+01   -.942E+00 -.101E+01 -.494E+00   0.199E-03 0.225E-02 0.391E-03
   -.341E+01 -.242E+01 0.375E+01   0.287E+01 0.200E+01 -.314E+01   0.884E+00 0.470E-01 -.967E+00   -.140E-02 -.365E-03 -.115E-02
   -.568E+01 0.103E+01 0.167E+01   0.491E+01 -.132E+01 -.167E+01   0.149E+01 0.875E-01 -.277E+00   -.176E-02 0.846E-03 -.683E-03
   -.273E+00 -.176E+00 0.652E+00   0.495E+00 0.149E+00 -.834E+00   0.134E+00 0.546E+00 0.277E+00   0.337E-03 0.125E-02 0.127E-03
   -.524E+01 0.116E+01 0.220E+01   0.495E+01 -.121E+01 -.173E+01   0.747E+00 -.664E+00 -.352E+00   0.368E-03 -.143E-04 0.656E-03
   0.323E+01 0.350E+00 -.327E+01   -.286E+01 -.347E+00 0.291E+01   -.145E+01 -.636E+00 0.113E+01   -.127E-02 0.304E-02 0.769E-03
   -.322E+01 0.396E+01 0.254E+01   0.321E+01 -.349E+01 -.233E+01   0.175E+00 -.713E+00 -.977E+00   -.379E-03 0.248E-02 0.122E-03
   0.280E+01 0.238E+01 0.129E+00   -.269E+01 -.224E+01 0.452E-01   -.627E+00 -.669E+00 0.405E+00   0.311E-03 0.475E-03 0.130E-02
   0.181E+01 -.417E+01 0.285E+01   -.146E+01 0.358E+01 -.266E+01   -.111E+01 0.183E+01 -.934E+00   0.117E-02 0.158E-02 -.301E-03
   0.149E+01 0.904E+00 -.229E+01   -.113E+01 -.708E+00 0.215E+01   -.200E+00 -.173E+00 0.794E+00   -.134E-02 0.565E-03 -.110E-02
   -.277E+01 -.196E+00 0.414E+01   0.262E+01 0.447E+00 -.386E+01   0.269E+00 0.109E+00 -.140E+01   0.118E-02 -.131E-02 -.108E-02
   -.539E+01 0.233E+01 0.130E+01   0.488E+01 -.174E+01 -.124E+01   0.115E+01 -.647E+00 -.489E-01   0.817E-03 -.173E-02 -.367E-03
   -.130E+01 -.158E+00 -.192E+01   0.144E+01 0.360E+00 0.167E+01   -.412E+00 0.340E+00 0.665E+00   0.116E-02 -.889E-03 -.573E-03
   0.186E+01 -.436E+01 0.243E+01   -.161E+01 0.425E+01 -.202E+01   -.392E+00 -.923E-01 -.886E+00   0.182E-02 -.204E-02 0.269E-03
   -.552E+01 -.288E+01 0.671E+00   0.527E+01 0.260E+01 -.654E+00   0.547E+00 0.201E+00 0.315E+00   0.251E-02 -.212E-02 0.124E-03
   0.991E+00 -.561E+00 0.150E+01   -.912E+00 0.494E+00 -.122E+01   -.695E-01 -.190E+00 -.590E+00   -.102E-02 0.225E-03 0.639E-03
   -.590E+01 -.663E+00 0.336E+01   0.544E+01 0.741E+00 -.304E+01   0.112E+01 -.628E+00 -.850E+00   -.114E-02 -.217E-02 0.284E-03
   0.802E+00 -.628E+01 -.382E+01   -.100E+01 0.598E+01 0.345E+01   0.668E+00 0.173E+01 0.136E+01   0.181E-02 -.151E-02 -.652E-03
   0.326E+00 -.466E+01 -.389E+01   -.486E+00 0.384E+01 0.358E+01   0.806E+00 0.116E+01 0.317E+00   0.142E-02 -.213E-02 0.527E-03
   0.238E+01 -.635E+01 0.595E-01   -.224E+01 0.535E+01 -.125E+00   -.747E-01 0.151E+01 -.190E+00   0.556E-03 -.280E-02 0.781E-03
   0.499E+00 -.425E+00 -.961E+01   -.498E+00 0.505E+00 0.870E+01   -.467E+00 0.509E-01 0.256E+01   0.851E-03 -.926E-03 0.237E-03
   0.802E+00 -.176E+00 0.370E+01   -.687E+00 0.280E+00 -.305E+01   -.215E-02 -.534E+00 -.738E+00   0.168E-02 -.153E-02 0.779E-03
   0.814E+01 -.184E+01 -.295E+01   -.718E+01 0.201E+01 0.279E+01   -.260E+01 0.238E+00 -.212E+00   0.284E-02 -.153E-02 0.909E-03
   0.112E+01 0.529E+01 0.315E+00   -.858E+00 -.450E+01 -.256E+00   -.202E+00 -.106E+01 0.488E+00   -.145E-02 -.910E-03 0.835E-03
   0.844E+00 -.552E+01 0.436E+00   -.415E+00 0.504E+01 -.219E+00   -.435E+00 0.123E+01 -.396E+00   -.114E-02 -.268E-02 -.670E-03
   0.252E+01 -.165E+01 0.303E+00   -.221E+01 0.128E+01 -.390E+00   -.522E+00 0.349E+00 -.182E+00   0.151E-02 -.273E-03 -.108E-02
   -.750E+00 0.349E+01 -.359E+01   0.576E+00 -.295E+01 0.325E+01   0.697E+00 -.142E+01 0.129E+01   0.136E-02 0.165E-02 -.139E-02
   0.867E+00 0.771E+00 0.310E+00   -.961E+00 -.446E+00 -.356E+00   -.584E+00 0.253E+00 0.449E+00   0.125E-03 0.232E-02 -.205E-03
   0.196E+01 0.598E+00 -.277E+01   -.187E+01 -.632E+00 0.232E+01   -.181E+00 -.198E-01 0.263E+00   0.195E-02 0.102E-02 -.957E-03
   0.144E+01 -.114E+01 -.138E+01   -.115E+01 0.694E+00 0.126E+01   -.201E+00 0.169E+01 0.399E+00   0.127E-02 0.150E-02 0.721E-03
   -.363E+01 0.269E+01 0.747E+00   0.313E+01 -.259E+01 -.492E+00   0.119E+01 -.658E+00 -.600E+00   0.196E-02 0.211E-02 -.698E-03
   -.142E+01 0.135E+00 0.314E+01   0.131E+01 -.153E+00 -.279E+01   0.941E+00 -.639E+00 -.571E+00   -.938E-03 -.163E-03 0.711E-04
   0.169E+01 0.226E+01 0.201E+01   -.159E+01 -.206E+01 -.177E+01   -.965E+00 -.725E+00 -.275E+00   -.108E-02 0.269E-02 -.120E-02
   0.117E+01 0.191E+01 0.206E+01   -.132E+01 -.175E+01 -.176E+01   -.771E-01 -.522E+00 -.730E+00   0.158E-02 -.551E-03 0.472E-03
   -.336E+00 0.280E+01 0.198E+01   -.245E-01 -.274E+01 -.162E+01   0.808E+00 -.860E+00 -.110E+01   -.330E-03 0.121E-02 0.376E-03
   0.265E+01 0.511E+00 0.127E+01   -.267E+01 -.837E+00 -.129E+01   0.397E+00 0.748E+00 -.394E+00   0.844E-03 0.244E-02 -.661E-03
   0.267E+01 0.479E+00 0.132E+01   -.256E+01 -.712E+00 -.116E+01   -.846E+00 0.580E+00 -.566E+00   -.750E-04 0.486E-03 0.781E-03
   0.221E+01 0.423E+01 0.274E+01   -.208E+01 -.367E+01 -.244E+01   -.522E+00 -.135E+01 -.726E+00   0.153E-02 0.227E-02 0.520E-03
   0.218E+01 0.405E+01 -.599E+01   -.216E+01 -.380E+01 0.540E+01   -.176E+00 -.166E+00 0.171E+01   0.151E-02 0.244E-02 0.127E-02
   -.563E+00 0.338E+01 0.262E+01   0.460E+00 -.293E+01 -.226E+01   0.617E+00 -.113E+01 -.899E+00   -.119E-02 0.142E-02 0.628E-03
   0.438E+00 -.547E+01 0.387E+01   -.284E+00 0.459E+01 -.326E+01   0.206E+00 0.182E+01 -.152E+01   -.890E-03 0.127E-02 0.299E-03
   -.183E+01 -.280E+01 -.346E+00   0.158E+01 0.198E+01 0.185E+00   0.115E+01 0.876E+00 0.298E+00   0.189E-02 -.768E-04 -.676E-03
 -----------------------------------------------------------------------------------------------
   -.715E-01 0.138E+00 -.402E-01   -.542E-13 -.266E-13 -.260E-13   0.835E-01 -.137E+00 0.545E-01   -.159E-02 -.155E-02 -.268E-02
 
 
 POSITION                                       TOTAL-FORCE (eV/Angst)
 -----------------------------------------------------------------------------------
      0.07443      0.07399      0.07693        -0.364224     -0.461539     -0.041309
      2.71964      2.75784      0.02851         0.448713     -0.461762      0.077836
      2.83963      0.01896      2.71681        -0.315516     -0.601800      0.540138
     -0.00073      2.81219      2.70893        -0.218534     -0.756833     -0.054243
      1.45964      1.34437      1.45163        -0.544271      0.970818     -0.245389
      4.08961      4.08404      1.38108        -0.287825      0.880562      0.063094
      4.20270      1.35050      4.03410        -0.405934      0.268166      0.710452
      1.31229      4.10046      4.08429         0.441749      0.340544      0.834595
     10.86900     10.89101      5.47609         0.409113      1.108678      0.169774
      2.77575      2.69559      5.40197         0.014913      0.314204     -0.410456
      2.78865      0.02620      8.30499         0.532404      0.292988     -0.731429
      0.21413      2.81780      8.13726        -1.312380     -0.473588      0.105553
      1.51508      1.39076      6.84807        -0.559515     -0.773156     -0.238368
      4.05740      4.06946      6.82347        -0.021903      0.355088      0.343740
      4.19205      1.40035      9.62030        -0.258314      0.203639     -0.002683
      1.39638      4.15474      9.59304         0.296373      0.377846     -0.144543
      0.06155      5.56514     10.88158         0.008034     -0.491973      0.933915
      2.71298      8.25153      0.05423         0.387088     -0.347991     -0.351460
      2.67418      5.49510      2.79010         0.857295      0.208482     -0.135134
     10.82444      8.20228      2.76216         0.193054      1.122840     -0.261075
      1.33282      6.93274      1.43895         0.478693     -0.560881     -0.230052
      4.17909      9.57919      1.33340        -0.555120     -0.750028      0.723708
      4.14669      6.91364      4.16834        -0.987691     -0.845726     -0.270960
      1.34184      9.60343      4.10002         0.337812     -0.369179     -0.357846
     10.87755      5.52233      5.51898         0.723389     -0.201760     -0.281921
      2.67616      8.19375      5.47253         0.356872      0.521258      0.094192
      2.74146      5.53907      8.22736         0.457130     -0.711361      0.125331
      0.08426      8.30447      8.13372        -1.079860     -0.629575      0.769842
      1.37095      6.86359      6.91226         0.168736     -0.237044     -0.776993
      4.10730      9.59913      6.80256        -0.516585     -0.520824      0.580217
      4.14799      6.83080      9.60886        -0.757157      1.243196     -0.740070
      1.35973      9.60318      9.54378         0.158464      0.023271      0.652396
      5.54820      0.03795      0.13842         0.116509      0.359774     -1.123306
      8.20829      2.76986      0.01188         0.629930     -0.063129      0.007222
      8.18855      0.02175      2.77762        -0.274207      0.541301      0.413600
      5.46844      2.74694      2.70658        -0.146608     -0.206653     -0.476143
      6.88080      1.42804      1.39672         0.293792     -0.087138      0.332146
      9.53807      4.22537      1.39177         0.007904     -0.256683     -0.305706
      9.50941      1.45945      4.14462         0.659836     -0.552906     -0.526758
      6.74118      4.01063      4.09354         0.467246      1.431740      0.985071
      5.47487      0.05056      5.51777         0.646834      0.341606      0.005853
      8.14708      2.72528      5.50175         0.066988      0.496037     -0.254635
      8.31040     10.89480      8.15514        -0.464719      0.130102      1.641769
      5.51467      2.80011      8.21680         0.114242     -0.430593     -0.086790
      6.97837      1.35427      6.92124        -1.635444      0.408611     -0.366666
      9.58815      4.08422      6.77394         0.061152     -0.279130      0.546674
      9.65447      1.39522      9.53133        -0.007948      0.747755     -0.179559
      6.85742      4.16407      9.60164        -0.211700     -0.026158     -0.270957
      5.45578      5.52467      0.01591         0.524703     -0.878581      0.951812
      8.21730      8.15461     10.86304        -0.678049      0.580721      0.401999
      8.16667      5.49705      2.84965        -0.087716     -0.053434     -0.181442
      5.46484      8.14948      2.74603         0.094032      1.239346      0.273761
      6.80800      6.86531      1.41970         0.699188     -0.554910     -0.345326
      9.46077      9.61941      1.36753         0.831798     -0.658211     -0.226527
      9.58884      6.90234      4.17666        -0.866509     -0.517080     -0.036135
      6.82286      9.57246      4.16793        -0.227236     -0.365458     -0.426433
      5.40381      5.51028      5.55564         0.447285     -0.790059     -0.744704
      8.13368      8.15564      5.52313         0.380261      0.423723     -0.409656
      8.31878      5.39557      8.23356        -0.743692      0.346733     -0.410866
      5.50806      8.26207      8.20414        -0.388336     -0.781917     -0.435227
      6.87479      6.76263      6.84341        -0.161659      0.084884      1.116760
      9.51226      9.55559      6.81565         0.513264     -0.668637     -0.543055
      9.59127      6.81300      9.56050         0.358536      0.943336     -0.913760
      6.81081      9.60199      9.55411         0.895320      0.058450      0.136133
 -----------------------------------------------------------------------------------
    total drift:                                0.010476     -0.000944      0.011670


--------------------------------------------------------------------------------------------------------



  FREE ENERGIE OF THE ION-ELECTRON SYSTEM (eV)
  ---------------------------------------------------
  free  energy   TOTEN  =      -344.57951239 eV

  energy  without entropy=     -344.57951239  energy(sigma->0) =     -344.57951239
 


--------------------------------------------------------------------------------------------------------


    POTLOK:  cpu time      0.4047: real time      0.4060


--------------------------------------------------------------------------------------------------------


 writing wavefunctions
     LOOP+:  cpu time    216.2794: real time    218.7900
    4ORBIT:  cpu time      0.0000: real time      0.0000

 total amount of memory used by VASP MPI-rank0    37813. kBytes
=======================================================================

   base      :      30000. kBytes
   nonlr-proj:       1194. kBytes
   fftplans  :        841. kBytes
   grid      :       1174. kBytes
   one-center:          9. kBytes
   wavefun   :       4595. kBytes
 
  
  
 General timing and accounting informations for this job:
 ========================================================
  
                  Total CPU time used (sec):      256.131
                            User time (sec):      255.936
                          System time (sec):        0.195
                         Elapsed time (sec):      259.508
  
                   Maximum memory used (kb):      212732.
                   Average memory used (kb):          N/A
  
                          Minor page faults:        19331
                          Major page faults:         7631
                 Voluntary context switches:         4601
